
     Program PWSCF v.6.7MaX starts on 13Oct2021 at 15:59: 7 

     This program is part of the open-source Quantum ESPRESSO suite
     for quantum simulation of materials; please cite
         "P. Giannozzi et al., J. Phys.:Condens. Matter 21 395502 (2009);
         "P. Giannozzi et al., J. Phys.:Condens. Matter 29 465901 (2017);
          URL http://www.quantum-espresso.org", 
     in publications or presentations arising from this work. More details at
     http://www.quantum-espresso.org/quote

     Parallel version (MPI), running on    56 processors

     MPI processes distributed on     2 nodes
     K-points division:     npool     =       7
     R & G space division:  proc/nbgrp/npool/nimage =       8
     Waiting for input...
     Reading input from standard input

     Current dimensions of program PWSCF are:
     Max number of different atomic species (ntypx) = 10
     Max number of k-points (npk) =  40000
     Max angular momentum in pseudopotentials (lmaxx) =  3

     Atomic positions and unit cell read from directory:
     run_output/hBN_2D.save/
     Atomic positions from file used, from input discarded


     Subspace diagonalization in iterative solution of the eigenvalue problem:
     one sub-group per band group will be used
     scalapack distributed-memory algorithm (size of sub-group:  2*  2 procs)


     Parallelization info
     --------------------
     sticks:   dense  smooth     PW     G-vecs:    dense   smooth      PW
     Min          31      31     10                 2719     2719     510
     Max          32      32     11                 2731     2731     525
     Sum         253     253     85                21817    21817    4131



     bravais-lattice index     =            4
     lattice parameter (alat)  =       4.7160  a.u.
     unit-cell volume          =     635.8432 (a.u.)^3
     number of atoms/cell      =            2
     number of atomic types    =            2
     number of electrons       =         8.00
     number of Kohn-Sham states=           20
     kinetic-energy cutoff     =      40.0000  Ry
     charge density cutoff     =     160.0000  Ry
     Exchange-correlation=  SLA  PZ   NOGX NOGC
                           (   1   1   0   0   0   0   0)

     celldm(1)=   4.716000  celldm(2)=   0.000000  celldm(3)=   7.000000
     celldm(4)=   0.000000  celldm(5)=   0.000000  celldm(6)=   0.000000

     crystal axes: (cart. coord. in units of alat)
               a(1) = (   1.000000   0.000000   0.000000 )  
               a(2) = (  -0.500000   0.866025   0.000000 )  
               a(3) = (   0.000000   0.000000   7.000000 )  

     reciprocal axes: (cart. coord. in units 2 pi/alat)
               b(1) = (  1.000000  0.577350 -0.000000 )  
               b(2) = (  0.000000  1.154701  0.000000 )  
               b(3) = (  0.000000 -0.000000  0.142857 )  


     PseudoPot. # 1 for B  read from file:
     PPs/B.pz-vbc.UPF
     MD5 check sum: b59596b5d63edeea6a2b3a0beace49c5
     Pseudo is Norm-conserving, Zval =  3.0
     Generated by new atomic code, or converted to UPF format
     Using radial grid of  157 points,  1 beta functions with: 
                l(1) =   0

     PseudoPot. # 2 for N  read from file:
     PPs/N.pz-vbc.UPF
     MD5 check sum: f7a51f6f78412844d17f6e69b370b417
     Pseudo is Norm-conserving, Zval =  5.0
     Generated by new atomic code, or converted to UPF format
     Using radial grid of  161 points,  1 beta functions with: 
                l(1) =   0

     atomic species   valence    mass     pseudopotential
        B              3.00    10.00000     B ( 1.00)
        N              5.00    14.00000     N ( 1.00)

     12 Sym. Ops. (no inversion) found


                                    s                        frac. trans.

      isym =  1     identity                                     

 cryst.   s( 1) = (     1          0          0      )
                  (     0          1          0      )
                  (     0          0          1      )

 cart.    s( 1) = (  1.0000000  0.0000000  0.0000000 )
                  (  0.0000000  1.0000000  0.0000000 )
                  (  0.0000000  0.0000000  1.0000000 )


      isym =  2     180 deg rotation - cart. axis [0,1,0]        

 cryst.   s( 2) = (    -1          0          0      )
                  (     1          1          0      )
                  (     0          0         -1      )

 cart.    s( 2) = ( -1.0000000  0.0000000  0.0000000 )
                  (  0.0000000  1.0000000  0.0000000 )
                  (  0.0000000  0.0000000 -1.0000000 )


      isym =  3     120 deg rotation - cryst. axis [0,0,1]       

 cryst.   s( 3) = (     0          1          0      )
                  (    -1         -1          0      )
                  (     0          0          1      )

 cart.    s( 3) = ( -0.5000000 -0.8660254  0.0000000 )
                  (  0.8660254 -0.5000000  0.0000000 )
                  (  0.0000000  0.0000000  1.0000000 )


      isym =  4     120 deg rotation - cryst. axis [0,0,-1]      

 cryst.   s( 4) = (    -1         -1          0      )
                  (     1          0          0      )
                  (     0          0          1      )

 cart.    s( 4) = ( -0.5000000  0.8660254  0.0000000 )
                  ( -0.8660254 -0.5000000  0.0000000 )
                  (  0.0000000  0.0000000  1.0000000 )


      isym =  5     180 deg rotation - cryst. axis [1,-1,0]      

 cryst.   s( 5) = (     0         -1          0      )
                  (    -1          0          0      )
                  (     0          0         -1      )

 cart.    s( 5) = (  0.5000000 -0.8660254  0.0000000 )
                  ( -0.8660254 -0.5000000  0.0000000 )
                  (  0.0000000  0.0000000 -1.0000000 )


      isym =  6     180 deg rotation - cryst. axis [2,1,0]       

 cryst.   s( 6) = (     1          1          0      )
                  (     0         -1          0      )
                  (     0          0         -1      )

 cart.    s( 6) = (  0.5000000  0.8660254  0.0000000 )
                  (  0.8660254 -0.5000000  0.0000000 )
                  (  0.0000000  0.0000000 -1.0000000 )


      isym =  7     inv. 180 deg rotation - cart. axis [0,0,1]   

 cryst.   s( 7) = (     1          0          0      )
                  (     0          1          0      )
                  (     0          0         -1      )

 cart.    s( 7) = (  1.0000000  0.0000000  0.0000000 )
                  (  0.0000000  1.0000000  0.0000000 )
                  (  0.0000000  0.0000000 -1.0000000 )


      isym =  8     inv. 180 deg rotation - cart. axis [1,0,0]   

 cryst.   s( 8) = (    -1          0          0      )
                  (     1          1          0      )
                  (     0          0          1      )

 cart.    s( 8) = ( -1.0000000  0.0000000  0.0000000 )
                  (  0.0000000  1.0000000  0.0000000 )
                  (  0.0000000  0.0000000  1.0000000 )


      isym =  9     inv.  60 deg rotation - cryst. axis [0,0,1]  

 cryst.   s( 9) = (    -1         -1          0      )
                  (     1          0          0      )
                  (     0          0         -1      )

 cart.    s( 9) = ( -0.5000000  0.8660254  0.0000000 )
                  ( -0.8660254 -0.5000000  0.0000000 )
                  (  0.0000000  0.0000000 -1.0000000 )


      isym = 10     inv.  60 deg rotation - cryst. axis [0,0,-1] 

 cryst.   s(10) = (     0          1          0      )
                  (    -1         -1          0      )
                  (     0          0         -1      )

 cart.    s(10) = ( -0.5000000 -0.8660254  0.0000000 )
                  (  0.8660254 -0.5000000  0.0000000 )
                  (  0.0000000  0.0000000 -1.0000000 )


      isym = 11     inv. 180 deg rotation - cryst. axis [0,1,0]  

 cryst.   s(11) = (     1          1          0      )
                  (     0         -1          0      )
                  (     0          0          1      )

 cart.    s(11) = (  0.5000000  0.8660254  0.0000000 )
                  (  0.8660254 -0.5000000  0.0000000 )
                  (  0.0000000  0.0000000  1.0000000 )


      isym = 12     inv. 180 deg rotation - cryst. axis [1,1,0]  

 cryst.   s(12) = (     0         -1          0      )
                  (    -1          0          0      )
                  (     0          0          1      )

 cart.    s(12) = (  0.5000000 -0.8660254  0.0000000 )
                  ( -0.8660254 -0.5000000  0.0000000 )
                  (  0.0000000  0.0000000  1.0000000 )


     point group D_3h (-62m)
     there are  6 classes
     the character table:

       E     2C3   3C2   s_h   2S3   3s_v 
A'_1   1.00  1.00  1.00  1.00  1.00  1.00
A'_2   1.00  1.00 -1.00  1.00  1.00 -1.00
E'     2.00 -1.00  0.00  2.00 -1.00  0.00
A''1   1.00  1.00  1.00 -1.00 -1.00 -1.00
A''2   1.00  1.00 -1.00 -1.00 -1.00  1.00
E''    2.00 -1.00  0.00 -2.00  1.00  0.00

     the symmetry operations in each class and the name of the first element:

     E        1
          identity                                               
     2C3      3    4
          120 deg rotation - cryst. axis [0,0,1]                 
     3C2      2    6    5
          180 deg rotation - cart. axis [0,1,0]                  
     s_h      7
          inv. 180 deg rotation - cart. axis [0,0,1]             
     2S3      9   10
          inv.  60 deg rotation - cryst. axis [0,0,1]            
     3s_v     8   11   12
          inv. 180 deg rotation - cart. axis [1,0,0]             

   Cartesian axes

     site n.     atom                  positions (alat units)
         1           B   tau(   1) = (   0.5000001   0.2886751   0.0000000  )
         2           N   tau(   2) = (  -0.5000001  -0.2886751   0.0000000  )

   Crystallographic axes

     site n.     atom                  positions (cryst. coord.)
         1           B   tau(   1) = (  0.6666667  0.3333333  0.0000000  )
         2           N   tau(   2) = ( -0.6666667 -0.3333333  0.0000000  )

     number of k points=   217
                       cart. coord. in units 2pi/alat
        k(    1) = (   0.0000000   0.0000000   0.0000000), wk =   0.0008681
        k(    2) = (   0.0000000   0.0240563   0.0000000), wk =   0.0052083
        k(    3) = (   0.0000000   0.0481125   0.0000000), wk =   0.0052083
        k(    4) = (   0.0000000   0.0721688   0.0000000), wk =   0.0052083
        k(    5) = (   0.0000000   0.0962250   0.0000000), wk =   0.0052083
        k(    6) = (   0.0000000   0.1202813   0.0000000), wk =   0.0052083
        k(    7) = (   0.0000000   0.1443376   0.0000000), wk =   0.0052083
        k(    8) = (   0.0000000   0.1683938   0.0000000), wk =   0.0052083
        k(    9) = (   0.0000000   0.1924501   0.0000000), wk =   0.0052083
        k(   10) = (   0.0000000   0.2165064   0.0000000), wk =   0.0052083
        k(   11) = (   0.0000000   0.2405626   0.0000000), wk =   0.0052083
        k(   12) = (   0.0000000   0.2646189   0.0000000), wk =   0.0052083
        k(   13) = (   0.0000000   0.2886751   0.0000000), wk =   0.0052083
        k(   14) = (   0.0000000   0.3127314   0.0000000), wk =   0.0052083
        k(   15) = (   0.0000000   0.3367877   0.0000000), wk =   0.0052083
        k(   16) = (   0.0000000   0.3608439   0.0000000), wk =   0.0052083
        k(   17) = (   0.0000000   0.3849002   0.0000000), wk =   0.0052083
        k(   18) = (   0.0000000   0.4089564   0.0000000), wk =   0.0052083
        k(   19) = (   0.0000000   0.4330127   0.0000000), wk =   0.0052083
        k(   20) = (   0.0000000   0.4570690   0.0000000), wk =   0.0052083
        k(   21) = (   0.0000000   0.4811252   0.0000000), wk =   0.0052083
        k(   22) = (   0.0000000   0.5051815   0.0000000), wk =   0.0052083
        k(   23) = (   0.0000000   0.5292377   0.0000000), wk =   0.0052083
        k(   24) = (   0.0000000   0.5532940   0.0000000), wk =   0.0052083
        k(   25) = (   0.0000000  -0.5773503   0.0000000), wk =   0.0026042
        k(   26) = (   0.0208333   0.0360844   0.0000000), wk =   0.0052083
        k(   27) = (   0.0208333   0.0601407   0.0000000), wk =   0.0104167
        k(   28) = (   0.0208333   0.0841969   0.0000000), wk =   0.0104167
        k(   29) = (   0.0208333   0.1082532   0.0000000), wk =   0.0104167
        k(   30) = (   0.0208333   0.1323094   0.0000000), wk =   0.0104167
        k(   31) = (   0.0208333   0.1563657   0.0000000), wk =   0.0104167
        k(   32) = (   0.0208333   0.1804220   0.0000000), wk =   0.0104167
        k(   33) = (   0.0208333   0.2044782   0.0000000), wk =   0.0104167
        k(   34) = (   0.0208333   0.2285345   0.0000000), wk =   0.0104167
        k(   35) = (   0.0208333   0.2525907   0.0000000), wk =   0.0104167
        k(   36) = (   0.0208333   0.2766470   0.0000000), wk =   0.0104167
        k(   37) = (   0.0208333   0.3007033   0.0000000), wk =   0.0104167
        k(   38) = (   0.0208333   0.3247595   0.0000000), wk =   0.0104167
        k(   39) = (   0.0208333   0.3488158   0.0000000), wk =   0.0104167
        k(   40) = (   0.0208333   0.3728720   0.0000000), wk =   0.0104167
        k(   41) = (   0.0208333   0.3969283   0.0000000), wk =   0.0104167
        k(   42) = (   0.0208333   0.4209846   0.0000000), wk =   0.0104167
        k(   43) = (   0.0208333   0.4450408   0.0000000), wk =   0.0104167
        k(   44) = (   0.0208333   0.4690971   0.0000000), wk =   0.0104167
        k(   45) = (   0.0208333   0.4931534   0.0000000), wk =   0.0104167
        k(   46) = (   0.0208333   0.5172096   0.0000000), wk =   0.0104167
        k(   47) = (   0.0208333   0.5412659   0.0000000), wk =   0.0104167
        k(   48) = (   0.0208333   0.5653221   0.0000000), wk =   0.0104167
        k(   49) = (   0.0416667   0.0721688   0.0000000), wk =   0.0052083
        k(   50) = (   0.0416667   0.0962250   0.0000000), wk =   0.0104167
        k(   51) = (   0.0416667   0.1202813   0.0000000), wk =   0.0104167
        k(   52) = (   0.0416667   0.1443376   0.0000000), wk =   0.0104167
        k(   53) = (   0.0416667   0.1683938   0.0000000), wk =   0.0104167
        k(   54) = (   0.0416667   0.1924501   0.0000000), wk =   0.0104167
        k(   55) = (   0.0416667   0.2165064   0.0000000), wk =   0.0104167
        k(   56) = (   0.0416667   0.2405626   0.0000000), wk =   0.0104167
        k(   57) = (   0.0416667   0.2646189   0.0000000), wk =   0.0104167
        k(   58) = (   0.0416667   0.2886751   0.0000000), wk =   0.0104167
        k(   59) = (   0.0416667   0.3127314   0.0000000), wk =   0.0104167
        k(   60) = (   0.0416667   0.3367877   0.0000000), wk =   0.0104167
        k(   61) = (   0.0416667   0.3608439   0.0000000), wk =   0.0104167
        k(   62) = (   0.0416667   0.3849002   0.0000000), wk =   0.0104167
        k(   63) = (   0.0416667   0.4089564   0.0000000), wk =   0.0104167
        k(   64) = (   0.0416667   0.4330127   0.0000000), wk =   0.0104167
        k(   65) = (   0.0416667   0.4570690   0.0000000), wk =   0.0104167
        k(   66) = (   0.0416667   0.4811252   0.0000000), wk =   0.0104167
        k(   67) = (   0.0416667   0.5051815   0.0000000), wk =   0.0104167
        k(   68) = (   0.0416667   0.5292377   0.0000000), wk =   0.0104167
        k(   69) = (   0.0416667   0.5532940   0.0000000), wk =   0.0104167
        k(   70) = (   0.0416667   0.5773503   0.0000000), wk =   0.0052083
        k(   71) = (   0.0625000   0.1082532   0.0000000), wk =   0.0052083
        k(   72) = (   0.0625000   0.1323094   0.0000000), wk =   0.0104167
        k(   73) = (   0.0625000   0.1563657   0.0000000), wk =   0.0104167
        k(   74) = (   0.0625000   0.1804220   0.0000000), wk =   0.0104167
        k(   75) = (   0.0625000   0.2044782   0.0000000), wk =   0.0104167
        k(   76) = (   0.0625000   0.2285345   0.0000000), wk =   0.0104167
        k(   77) = (   0.0625000   0.2525907   0.0000000), wk =   0.0104167
        k(   78) = (   0.0625000   0.2766470   0.0000000), wk =   0.0104167
        k(   79) = (   0.0625000   0.3007033   0.0000000), wk =   0.0104167
        k(   80) = (   0.0625000   0.3247595   0.0000000), wk =   0.0104167
        k(   81) = (   0.0625000   0.3488158   0.0000000), wk =   0.0104167
        k(   82) = (   0.0625000   0.3728720   0.0000000), wk =   0.0104167
        k(   83) = (   0.0625000   0.3969283   0.0000000), wk =   0.0104167
        k(   84) = (   0.0625000   0.4209846   0.0000000), wk =   0.0104167
        k(   85) = (   0.0625000   0.4450408   0.0000000), wk =   0.0104167
        k(   86) = (   0.0625000   0.4690971   0.0000000), wk =   0.0104167
        k(   87) = (   0.0625000   0.4931534   0.0000000), wk =   0.0104167
        k(   88) = (   0.0625000   0.5172096   0.0000000), wk =   0.0104167
        k(   89) = (   0.0625000   0.5412659   0.0000000), wk =   0.0104167
        k(   90) = (   0.0625000   0.5653221   0.0000000), wk =   0.0104167
        k(   91) = (   0.0833333   0.1443376   0.0000000), wk =   0.0052083
        k(   92) = (   0.0833333   0.1683938   0.0000000), wk =   0.0104167
        k(   93) = (   0.0833333   0.1924501   0.0000000), wk =   0.0104167
        k(   94) = (   0.0833333   0.2165064   0.0000000), wk =   0.0104167
        k(   95) = (   0.0833333   0.2405626   0.0000000), wk =   0.0104167
        k(   96) = (   0.0833333   0.2646189   0.0000000), wk =   0.0104167
        k(   97) = (   0.0833333   0.2886751   0.0000000), wk =   0.0104167
        k(   98) = (   0.0833333   0.3127314   0.0000000), wk =   0.0104167
        k(   99) = (   0.0833333   0.3367877   0.0000000), wk =   0.0104167
        k(  100) = (   0.0833333   0.3608439   0.0000000), wk =   0.0104167
        k(  101) = (   0.0833333   0.3849002   0.0000000), wk =   0.0104167
        k(  102) = (   0.0833333   0.4089564   0.0000000), wk =   0.0104167
        k(  103) = (   0.0833333   0.4330127   0.0000000), wk =   0.0104167
        k(  104) = (   0.0833333   0.4570690   0.0000000), wk =   0.0104167
        k(  105) = (   0.0833333   0.4811252   0.0000000), wk =   0.0104167
        k(  106) = (   0.0833333   0.5051815   0.0000000), wk =   0.0104167
        k(  107) = (   0.0833333   0.5292377   0.0000000), wk =   0.0104167
        k(  108) = (   0.0833333   0.5532940   0.0000000), wk =   0.0104167
        k(  109) = (   0.0833333   0.5773503   0.0000000), wk =   0.0052083
        k(  110) = (   0.1041667   0.1804220   0.0000000), wk =   0.0052083
        k(  111) = (   0.1041667   0.2044782   0.0000000), wk =   0.0104167
        k(  112) = (   0.1041667   0.2285345   0.0000000), wk =   0.0104167
        k(  113) = (   0.1041667   0.2525907   0.0000000), wk =   0.0104167
        k(  114) = (   0.1041667   0.2766470   0.0000000), wk =   0.0104167
        k(  115) = (   0.1041667   0.3007033   0.0000000), wk =   0.0104167
        k(  116) = (   0.1041667   0.3247595   0.0000000), wk =   0.0104167
        k(  117) = (   0.1041667   0.3488158   0.0000000), wk =   0.0104167
        k(  118) = (   0.1041667   0.3728720   0.0000000), wk =   0.0104167
        k(  119) = (   0.1041667   0.3969283   0.0000000), wk =   0.0104167
        k(  120) = (   0.1041667   0.4209846   0.0000000), wk =   0.0104167
        k(  121) = (   0.1041667   0.4450408   0.0000000), wk =   0.0104167
        k(  122) = (   0.1041667   0.4690971   0.0000000), wk =   0.0104167
        k(  123) = (   0.1041667   0.4931534   0.0000000), wk =   0.0104167
        k(  124) = (   0.1041667   0.5172096   0.0000000), wk =   0.0104167
        k(  125) = (   0.1041667   0.5412659   0.0000000), wk =   0.0104167
        k(  126) = (   0.1041667   0.5653221   0.0000000), wk =   0.0104167
        k(  127) = (   0.1250000   0.2165064   0.0000000), wk =   0.0052083
        k(  128) = (   0.1250000   0.2405626   0.0000000), wk =   0.0104167
        k(  129) = (   0.1250000   0.2646189   0.0000000), wk =   0.0104167
        k(  130) = (   0.1250000   0.2886751   0.0000000), wk =   0.0104167
        k(  131) = (   0.1250000   0.3127314   0.0000000), wk =   0.0104167
        k(  132) = (   0.1250000   0.3367877   0.0000000), wk =   0.0104167
        k(  133) = (   0.1250000   0.3608439   0.0000000), wk =   0.0104167
        k(  134) = (   0.1250000   0.3849002   0.0000000), wk =   0.0104167
        k(  135) = (   0.1250000   0.4089564   0.0000000), wk =   0.0104167
        k(  136) = (   0.1250000   0.4330127   0.0000000), wk =   0.0104167
        k(  137) = (   0.1250000   0.4570690   0.0000000), wk =   0.0104167
        k(  138) = (   0.1250000   0.4811252   0.0000000), wk =   0.0104167
        k(  139) = (   0.1250000   0.5051815   0.0000000), wk =   0.0104167
        k(  140) = (   0.1250000   0.5292377   0.0000000), wk =   0.0104167
        k(  141) = (   0.1250000   0.5532940   0.0000000), wk =   0.0104167
        k(  142) = (   0.1250000   0.5773503   0.0000000), wk =   0.0052083
        k(  143) = (   0.1458333   0.2525907   0.0000000), wk =   0.0052083
        k(  144) = (   0.1458333   0.2766470   0.0000000), wk =   0.0104167
        k(  145) = (   0.1458333   0.3007033   0.0000000), wk =   0.0104167
        k(  146) = (   0.1458333   0.3247595   0.0000000), wk =   0.0104167
        k(  147) = (   0.1458333   0.3488158   0.0000000), wk =   0.0104167
        k(  148) = (   0.1458333   0.3728720   0.0000000), wk =   0.0104167
        k(  149) = (   0.1458333   0.3969283   0.0000000), wk =   0.0104167
        k(  150) = (   0.1458333   0.4209846   0.0000000), wk =   0.0104167
        k(  151) = (   0.1458333   0.4450408   0.0000000), wk =   0.0104167
        k(  152) = (   0.1458333   0.4690971   0.0000000), wk =   0.0104167
        k(  153) = (   0.1458333   0.4931534   0.0000000), wk =   0.0104167
        k(  154) = (   0.1458333   0.5172096   0.0000000), wk =   0.0104167
        k(  155) = (   0.1458333   0.5412659   0.0000000), wk =   0.0104167
        k(  156) = (   0.1458333   0.5653221   0.0000000), wk =   0.0104167
        k(  157) = (   0.1666667   0.2886751   0.0000000), wk =   0.0052083
        k(  158) = (   0.1666667   0.3127314   0.0000000), wk =   0.0104167
        k(  159) = (   0.1666667   0.3367877   0.0000000), wk =   0.0104167
        k(  160) = (   0.1666667   0.3608439   0.0000000), wk =   0.0104167
        k(  161) = (   0.1666667   0.3849002   0.0000000), wk =   0.0104167
        k(  162) = (   0.1666667   0.4089564   0.0000000), wk =   0.0104167
        k(  163) = (   0.1666667   0.4330127   0.0000000), wk =   0.0104167
        k(  164) = (   0.1666667   0.4570690   0.0000000), wk =   0.0104167
        k(  165) = (   0.1666667   0.4811252   0.0000000), wk =   0.0104167
        k(  166) = (   0.1666667   0.5051815   0.0000000), wk =   0.0104167
        k(  167) = (   0.1666667   0.5292377   0.0000000), wk =   0.0104167
        k(  168) = (   0.1666667   0.5532940   0.0000000), wk =   0.0104167
        k(  169) = (   0.1666667   0.5773503   0.0000000), wk =   0.0052083
        k(  170) = (   0.1875000   0.3247595   0.0000000), wk =   0.0052083
        k(  171) = (   0.1875000   0.3488158   0.0000000), wk =   0.0104167
        k(  172) = (   0.1875000   0.3728720   0.0000000), wk =   0.0104167
        k(  173) = (   0.1875000   0.3969283   0.0000000), wk =   0.0104167
        k(  174) = (   0.1875000   0.4209846   0.0000000), wk =   0.0104167
        k(  175) = (   0.1875000   0.4450408   0.0000000), wk =   0.0104167
        k(  176) = (   0.1875000   0.4690971   0.0000000), wk =   0.0104167
        k(  177) = (   0.1875000   0.4931534   0.0000000), wk =   0.0104167
        k(  178) = (   0.1875000   0.5172096   0.0000000), wk =   0.0104167
        k(  179) = (   0.1875000   0.5412659   0.0000000), wk =   0.0104167
        k(  180) = (   0.1875000   0.5653221   0.0000000), wk =   0.0104167
        k(  181) = (   0.2083333   0.3608439   0.0000000), wk =   0.0052083
        k(  182) = (   0.2083333   0.3849002   0.0000000), wk =   0.0104167
        k(  183) = (   0.2083333   0.4089564   0.0000000), wk =   0.0104167
        k(  184) = (   0.2083333   0.4330127   0.0000000), wk =   0.0104167
        k(  185) = (   0.2083333   0.4570690   0.0000000), wk =   0.0104167
        k(  186) = (   0.2083333   0.4811252   0.0000000), wk =   0.0104167
        k(  187) = (   0.2083333   0.5051815   0.0000000), wk =   0.0104167
        k(  188) = (   0.2083333   0.5292377   0.0000000), wk =   0.0104167
        k(  189) = (   0.2083333   0.5532940   0.0000000), wk =   0.0104167
        k(  190) = (   0.2083333   0.5773503   0.0000000), wk =   0.0052083
        k(  191) = (   0.2291667   0.3969283   0.0000000), wk =   0.0052083
        k(  192) = (   0.2291667   0.4209846   0.0000000), wk =   0.0104167
        k(  193) = (   0.2291667   0.4450408   0.0000000), wk =   0.0104167
        k(  194) = (   0.2291667   0.4690971   0.0000000), wk =   0.0104167
        k(  195) = (   0.2291667   0.4931534   0.0000000), wk =   0.0104167
        k(  196) = (   0.2291667   0.5172096   0.0000000), wk =   0.0104167
        k(  197) = (   0.2291667   0.5412659   0.0000000), wk =   0.0104167
        k(  198) = (   0.2291667   0.5653221   0.0000000), wk =   0.0104167
        k(  199) = (   0.2500000   0.4330127   0.0000000), wk =   0.0052083
        k(  200) = (   0.2500000   0.4570690   0.0000000), wk =   0.0104167
        k(  201) = (   0.2500000   0.4811252   0.0000000), wk =   0.0104167
        k(  202) = (   0.2500000   0.5051815   0.0000000), wk =   0.0104167
        k(  203) = (   0.2500000   0.5292377   0.0000000), wk =   0.0104167
        k(  204) = (   0.2500000   0.5532940   0.0000000), wk =   0.0104167
        k(  205) = (   0.2500000   0.5773503   0.0000000), wk =   0.0052083
        k(  206) = (   0.2708333   0.4690971   0.0000000), wk =   0.0052083
        k(  207) = (   0.2708333   0.4931534   0.0000000), wk =   0.0104167
        k(  208) = (   0.2708333   0.5172096   0.0000000), wk =   0.0104167
        k(  209) = (   0.2708333   0.5412659   0.0000000), wk =   0.0104167
        k(  210) = (   0.2708333   0.5653221   0.0000000), wk =   0.0104167
        k(  211) = (   0.2916667   0.5051815   0.0000000), wk =   0.0052083
        k(  212) = (   0.2916667   0.5292377   0.0000000), wk =   0.0104167
        k(  213) = (   0.2916667   0.5532940   0.0000000), wk =   0.0104167
        k(  214) = (   0.2916667   0.5773503   0.0000000), wk =   0.0052083
        k(  215) = (   0.3125000   0.5412659   0.0000000), wk =   0.0052083
        k(  216) = (   0.3125000   0.5653221   0.0000000), wk =   0.0104167
        k(  217) = (   0.3333333   0.5773503   0.0000000), wk =   0.0017361

                       cryst. coord.
        k(    1) = (   0.0000000   0.0000000   0.0000000), wk =   0.0008681
        k(    2) = (   0.0000000   0.0208333   0.0000000), wk =   0.0052083
        k(    3) = (   0.0000000   0.0416667   0.0000000), wk =   0.0052083
        k(    4) = (   0.0000000   0.0625000   0.0000000), wk =   0.0052083
        k(    5) = (   0.0000000   0.0833333   0.0000000), wk =   0.0052083
        k(    6) = (   0.0000000   0.1041667   0.0000000), wk =   0.0052083
        k(    7) = (   0.0000000   0.1250000   0.0000000), wk =   0.0052083
        k(    8) = (   0.0000000   0.1458333   0.0000000), wk =   0.0052083
        k(    9) = (   0.0000000   0.1666667   0.0000000), wk =   0.0052083
        k(   10) = (   0.0000000   0.1875000   0.0000000), wk =   0.0052083
        k(   11) = (   0.0000000   0.2083333   0.0000000), wk =   0.0052083
        k(   12) = (   0.0000000   0.2291667   0.0000000), wk =   0.0052083
        k(   13) = (   0.0000000   0.2500000   0.0000000), wk =   0.0052083
        k(   14) = (   0.0000000   0.2708333   0.0000000), wk =   0.0052083
        k(   15) = (   0.0000000   0.2916667   0.0000000), wk =   0.0052083
        k(   16) = (   0.0000000   0.3125000   0.0000000), wk =   0.0052083
        k(   17) = (   0.0000000   0.3333333   0.0000000), wk =   0.0052083
        k(   18) = (   0.0000000   0.3541667   0.0000000), wk =   0.0052083
        k(   19) = (   0.0000000   0.3750000   0.0000000), wk =   0.0052083
        k(   20) = (   0.0000000   0.3958333   0.0000000), wk =   0.0052083
        k(   21) = (   0.0000000   0.4166667   0.0000000), wk =   0.0052083
        k(   22) = (   0.0000000   0.4375000   0.0000000), wk =   0.0052083
        k(   23) = (   0.0000000   0.4583333   0.0000000), wk =   0.0052083
        k(   24) = (   0.0000000   0.4791667   0.0000000), wk =   0.0052083
        k(   25) = (   0.0000000  -0.5000000   0.0000000), wk =   0.0026042
        k(   26) = (   0.0208333   0.0208333   0.0000000), wk =   0.0052083
        k(   27) = (   0.0208333   0.0416667   0.0000000), wk =   0.0104167
        k(   28) = (   0.0208333   0.0625000   0.0000000), wk =   0.0104167
        k(   29) = (   0.0208333   0.0833333   0.0000000), wk =   0.0104167
        k(   30) = (   0.0208333   0.1041667   0.0000000), wk =   0.0104167
        k(   31) = (   0.0208333   0.1250000   0.0000000), wk =   0.0104167
        k(   32) = (   0.0208333   0.1458333   0.0000000), wk =   0.0104167
        k(   33) = (   0.0208333   0.1666667   0.0000000), wk =   0.0104167
        k(   34) = (   0.0208333   0.1875000   0.0000000), wk =   0.0104167
        k(   35) = (   0.0208333   0.2083333   0.0000000), wk =   0.0104167
        k(   36) = (   0.0208333   0.2291667   0.0000000), wk =   0.0104167
        k(   37) = (   0.0208333   0.2500000   0.0000000), wk =   0.0104167
        k(   38) = (   0.0208333   0.2708333   0.0000000), wk =   0.0104167
        k(   39) = (   0.0208333   0.2916667   0.0000000), wk =   0.0104167
        k(   40) = (   0.0208333   0.3125000   0.0000000), wk =   0.0104167
        k(   41) = (   0.0208333   0.3333333   0.0000000), wk =   0.0104167
        k(   42) = (   0.0208333   0.3541667   0.0000000), wk =   0.0104167
        k(   43) = (   0.0208333   0.3750000   0.0000000), wk =   0.0104167
        k(   44) = (   0.0208333   0.3958333   0.0000000), wk =   0.0104167
        k(   45) = (   0.0208333   0.4166667   0.0000000), wk =   0.0104167
        k(   46) = (   0.0208333   0.4375000   0.0000000), wk =   0.0104167
        k(   47) = (   0.0208333   0.4583333   0.0000000), wk =   0.0104167
        k(   48) = (   0.0208333   0.4791667   0.0000000), wk =   0.0104167
        k(   49) = (   0.0416667   0.0416667   0.0000000), wk =   0.0052083
        k(   50) = (   0.0416667   0.0625000   0.0000000), wk =   0.0104167
        k(   51) = (   0.0416667   0.0833333   0.0000000), wk =   0.0104167
        k(   52) = (   0.0416667   0.1041667   0.0000000), wk =   0.0104167
        k(   53) = (   0.0416667   0.1250000   0.0000000), wk =   0.0104167
        k(   54) = (   0.0416667   0.1458333   0.0000000), wk =   0.0104167
        k(   55) = (   0.0416667   0.1666667   0.0000000), wk =   0.0104167
        k(   56) = (   0.0416667   0.1875000   0.0000000), wk =   0.0104167
        k(   57) = (   0.0416667   0.2083333   0.0000000), wk =   0.0104167
        k(   58) = (   0.0416667   0.2291667   0.0000000), wk =   0.0104167
        k(   59) = (   0.0416667   0.2500000   0.0000000), wk =   0.0104167
        k(   60) = (   0.0416667   0.2708333   0.0000000), wk =   0.0104167
        k(   61) = (   0.0416667   0.2916667   0.0000000), wk =   0.0104167
        k(   62) = (   0.0416667   0.3125000   0.0000000), wk =   0.0104167
        k(   63) = (   0.0416667   0.3333333   0.0000000), wk =   0.0104167
        k(   64) = (   0.0416667   0.3541667   0.0000000), wk =   0.0104167
        k(   65) = (   0.0416667   0.3750000   0.0000000), wk =   0.0104167
        k(   66) = (   0.0416667   0.3958333   0.0000000), wk =   0.0104167
        k(   67) = (   0.0416667   0.4166667   0.0000000), wk =   0.0104167
        k(   68) = (   0.0416667   0.4375000   0.0000000), wk =   0.0104167
        k(   69) = (   0.0416667   0.4583333   0.0000000), wk =   0.0104167
        k(   70) = (   0.0416667   0.4791667   0.0000000), wk =   0.0052083
        k(   71) = (   0.0625000   0.0625000   0.0000000), wk =   0.0052083
        k(   72) = (   0.0625000   0.0833333   0.0000000), wk =   0.0104167
        k(   73) = (   0.0625000   0.1041667   0.0000000), wk =   0.0104167
        k(   74) = (   0.0625000   0.1250000   0.0000000), wk =   0.0104167
        k(   75) = (   0.0625000   0.1458333   0.0000000), wk =   0.0104167
        k(   76) = (   0.0625000   0.1666667   0.0000000), wk =   0.0104167
        k(   77) = (   0.0625000   0.1875000   0.0000000), wk =   0.0104167
        k(   78) = (   0.0625000   0.2083333   0.0000000), wk =   0.0104167
        k(   79) = (   0.0625000   0.2291667   0.0000000), wk =   0.0104167
        k(   80) = (   0.0625000   0.2500000   0.0000000), wk =   0.0104167
        k(   81) = (   0.0625000   0.2708333   0.0000000), wk =   0.0104167
        k(   82) = (   0.0625000   0.2916667   0.0000000), wk =   0.0104167
        k(   83) = (   0.0625000   0.3125000   0.0000000), wk =   0.0104167
        k(   84) = (   0.0625000   0.3333333   0.0000000), wk =   0.0104167
        k(   85) = (   0.0625000   0.3541667   0.0000000), wk =   0.0104167
        k(   86) = (   0.0625000   0.3750000   0.0000000), wk =   0.0104167
        k(   87) = (   0.0625000   0.3958333   0.0000000), wk =   0.0104167
        k(   88) = (   0.0625000   0.4166667   0.0000000), wk =   0.0104167
        k(   89) = (   0.0625000   0.4375000   0.0000000), wk =   0.0104167
        k(   90) = (   0.0625000   0.4583333   0.0000000), wk =   0.0104167
        k(   91) = (   0.0833333   0.0833333   0.0000000), wk =   0.0052083
        k(   92) = (   0.0833333   0.1041667   0.0000000), wk =   0.0104167
        k(   93) = (   0.0833333   0.1250000   0.0000000), wk =   0.0104167
        k(   94) = (   0.0833333   0.1458333   0.0000000), wk =   0.0104167
        k(   95) = (   0.0833333   0.1666667   0.0000000), wk =   0.0104167
        k(   96) = (   0.0833333   0.1875000   0.0000000), wk =   0.0104167
        k(   97) = (   0.0833333   0.2083333   0.0000000), wk =   0.0104167
        k(   98) = (   0.0833333   0.2291667   0.0000000), wk =   0.0104167
        k(   99) = (   0.0833333   0.2500000   0.0000000), wk =   0.0104167
        k(  100) = (   0.0833333   0.2708333   0.0000000), wk =   0.0104167
        k(  101) = (   0.0833333   0.2916667   0.0000000), wk =   0.0104167
        k(  102) = (   0.0833333   0.3125000   0.0000000), wk =   0.0104167
        k(  103) = (   0.0833333   0.3333333   0.0000000), wk =   0.0104167
        k(  104) = (   0.0833333   0.3541667   0.0000000), wk =   0.0104167
        k(  105) = (   0.0833333   0.3750000   0.0000000), wk =   0.0104167
        k(  106) = (   0.0833333   0.3958333   0.0000000), wk =   0.0104167
        k(  107) = (   0.0833333   0.4166667   0.0000000), wk =   0.0104167
        k(  108) = (   0.0833333   0.4375000   0.0000000), wk =   0.0104167
        k(  109) = (   0.0833333   0.4583333   0.0000000), wk =   0.0052083
        k(  110) = (   0.1041667   0.1041667   0.0000000), wk =   0.0052083
        k(  111) = (   0.1041667   0.1250000   0.0000000), wk =   0.0104167
        k(  112) = (   0.1041667   0.1458333   0.0000000), wk =   0.0104167
        k(  113) = (   0.1041667   0.1666667   0.0000000), wk =   0.0104167
        k(  114) = (   0.1041667   0.1875000   0.0000000), wk =   0.0104167
        k(  115) = (   0.1041667   0.2083333   0.0000000), wk =   0.0104167
        k(  116) = (   0.1041667   0.2291667   0.0000000), wk =   0.0104167
        k(  117) = (   0.1041667   0.2500000   0.0000000), wk =   0.0104167
        k(  118) = (   0.1041667   0.2708333   0.0000000), wk =   0.0104167
        k(  119) = (   0.1041667   0.2916667   0.0000000), wk =   0.0104167
        k(  120) = (   0.1041667   0.3125000   0.0000000), wk =   0.0104167
        k(  121) = (   0.1041667   0.3333333   0.0000000), wk =   0.0104167
        k(  122) = (   0.1041667   0.3541667   0.0000000), wk =   0.0104167
        k(  123) = (   0.1041667   0.3750000   0.0000000), wk =   0.0104167
        k(  124) = (   0.1041667   0.3958333   0.0000000), wk =   0.0104167
        k(  125) = (   0.1041667   0.4166667   0.0000000), wk =   0.0104167
        k(  126) = (   0.1041667   0.4375000   0.0000000), wk =   0.0104167
        k(  127) = (   0.1250000   0.1250000   0.0000000), wk =   0.0052083
        k(  128) = (   0.1250000   0.1458333   0.0000000), wk =   0.0104167
        k(  129) = (   0.1250000   0.1666667   0.0000000), wk =   0.0104167
        k(  130) = (   0.1250000   0.1875000   0.0000000), wk =   0.0104167
        k(  131) = (   0.1250000   0.2083333   0.0000000), wk =   0.0104167
        k(  132) = (   0.1250000   0.2291667   0.0000000), wk =   0.0104167
        k(  133) = (   0.1250000   0.2500000   0.0000000), wk =   0.0104167
        k(  134) = (   0.1250000   0.2708333   0.0000000), wk =   0.0104167
        k(  135) = (   0.1250000   0.2916667   0.0000000), wk =   0.0104167
        k(  136) = (   0.1250000   0.3125000   0.0000000), wk =   0.0104167
        k(  137) = (   0.1250000   0.3333333   0.0000000), wk =   0.0104167
        k(  138) = (   0.1250000   0.3541667   0.0000000), wk =   0.0104167
        k(  139) = (   0.1250000   0.3750000   0.0000000), wk =   0.0104167
        k(  140) = (   0.1250000   0.3958333   0.0000000), wk =   0.0104167
        k(  141) = (   0.1250000   0.4166667   0.0000000), wk =   0.0104167
        k(  142) = (   0.1250000   0.4375000   0.0000000), wk =   0.0052083
        k(  143) = (   0.1458333   0.1458333   0.0000000), wk =   0.0052083
        k(  144) = (   0.1458333   0.1666667   0.0000000), wk =   0.0104167
        k(  145) = (   0.1458333   0.1875000   0.0000000), wk =   0.0104167
        k(  146) = (   0.1458333   0.2083333   0.0000000), wk =   0.0104167
        k(  147) = (   0.1458333   0.2291667   0.0000000), wk =   0.0104167
        k(  148) = (   0.1458333   0.2500000   0.0000000), wk =   0.0104167
        k(  149) = (   0.1458333   0.2708333   0.0000000), wk =   0.0104167
        k(  150) = (   0.1458333   0.2916667   0.0000000), wk =   0.0104167
        k(  151) = (   0.1458333   0.3125000   0.0000000), wk =   0.0104167
        k(  152) = (   0.1458333   0.3333333   0.0000000), wk =   0.0104167
        k(  153) = (   0.1458333   0.3541667   0.0000000), wk =   0.0104167
        k(  154) = (   0.1458333   0.3750000   0.0000000), wk =   0.0104167
        k(  155) = (   0.1458333   0.3958333   0.0000000), wk =   0.0104167
        k(  156) = (   0.1458333   0.4166667   0.0000000), wk =   0.0104167
        k(  157) = (   0.1666667   0.1666667   0.0000000), wk =   0.0052083
        k(  158) = (   0.1666667   0.1875000   0.0000000), wk =   0.0104167
        k(  159) = (   0.1666667   0.2083333   0.0000000), wk =   0.0104167
        k(  160) = (   0.1666667   0.2291667   0.0000000), wk =   0.0104167
        k(  161) = (   0.1666667   0.2500000   0.0000000), wk =   0.0104167
        k(  162) = (   0.1666667   0.2708333   0.0000000), wk =   0.0104167
        k(  163) = (   0.1666667   0.2916667   0.0000000), wk =   0.0104167
        k(  164) = (   0.1666667   0.3125000   0.0000000), wk =   0.0104167
        k(  165) = (   0.1666667   0.3333333   0.0000000), wk =   0.0104167
        k(  166) = (   0.1666667   0.3541667   0.0000000), wk =   0.0104167
        k(  167) = (   0.1666667   0.3750000   0.0000000), wk =   0.0104167
        k(  168) = (   0.1666667   0.3958333   0.0000000), wk =   0.0104167
        k(  169) = (   0.1666667   0.4166667   0.0000000), wk =   0.0052083
        k(  170) = (   0.1875000   0.1875000   0.0000000), wk =   0.0052083
        k(  171) = (   0.1875000   0.2083333   0.0000000), wk =   0.0104167
        k(  172) = (   0.1875000   0.2291667   0.0000000), wk =   0.0104167
        k(  173) = (   0.1875000   0.2500000   0.0000000), wk =   0.0104167
        k(  174) = (   0.1875000   0.2708333   0.0000000), wk =   0.0104167
        k(  175) = (   0.1875000   0.2916667   0.0000000), wk =   0.0104167
        k(  176) = (   0.1875000   0.3125000   0.0000000), wk =   0.0104167
        k(  177) = (   0.1875000   0.3333333   0.0000000), wk =   0.0104167
        k(  178) = (   0.1875000   0.3541667   0.0000000), wk =   0.0104167
        k(  179) = (   0.1875000   0.3750000   0.0000000), wk =   0.0104167
        k(  180) = (   0.1875000   0.3958333   0.0000000), wk =   0.0104167
        k(  181) = (   0.2083333   0.2083333   0.0000000), wk =   0.0052083
        k(  182) = (   0.2083333   0.2291667   0.0000000), wk =   0.0104167
        k(  183) = (   0.2083333   0.2500000   0.0000000), wk =   0.0104167
        k(  184) = (   0.2083333   0.2708333   0.0000000), wk =   0.0104167
        k(  185) = (   0.2083333   0.2916667   0.0000000), wk =   0.0104167
        k(  186) = (   0.2083333   0.3125000   0.0000000), wk =   0.0104167
        k(  187) = (   0.2083333   0.3333333   0.0000000), wk =   0.0104167
        k(  188) = (   0.2083333   0.3541667   0.0000000), wk =   0.0104167
        k(  189) = (   0.2083333   0.3750000   0.0000000), wk =   0.0104167
        k(  190) = (   0.2083333   0.3958333   0.0000000), wk =   0.0052083
        k(  191) = (   0.2291667   0.2291667   0.0000000), wk =   0.0052083
        k(  192) = (   0.2291667   0.2500000   0.0000000), wk =   0.0104167
        k(  193) = (   0.2291667   0.2708333   0.0000000), wk =   0.0104167
        k(  194) = (   0.2291667   0.2916667   0.0000000), wk =   0.0104167
        k(  195) = (   0.2291667   0.3125000   0.0000000), wk =   0.0104167
        k(  196) = (   0.2291667   0.3333333   0.0000000), wk =   0.0104167
        k(  197) = (   0.2291667   0.3541667   0.0000000), wk =   0.0104167
        k(  198) = (   0.2291667   0.3750000   0.0000000), wk =   0.0104167
        k(  199) = (   0.2500000   0.2500000   0.0000000), wk =   0.0052083
        k(  200) = (   0.2500000   0.2708333   0.0000000), wk =   0.0104167
        k(  201) = (   0.2500000   0.2916667   0.0000000), wk =   0.0104167
        k(  202) = (   0.2500000   0.3125000   0.0000000), wk =   0.0104167
        k(  203) = (   0.2500000   0.3333333   0.0000000), wk =   0.0104167
        k(  204) = (   0.2500000   0.3541667   0.0000000), wk =   0.0104167
        k(  205) = (   0.2500000   0.3750000   0.0000000), wk =   0.0052083
        k(  206) = (   0.2708333   0.2708333   0.0000000), wk =   0.0052083
        k(  207) = (   0.2708333   0.2916667   0.0000000), wk =   0.0104167
        k(  208) = (   0.2708333   0.3125000   0.0000000), wk =   0.0104167
        k(  209) = (   0.2708333   0.3333333   0.0000000), wk =   0.0104167
        k(  210) = (   0.2708333   0.3541667   0.0000000), wk =   0.0104167
        k(  211) = (   0.2916667   0.2916667   0.0000000), wk =   0.0052083
        k(  212) = (   0.2916667   0.3125000   0.0000000), wk =   0.0104167
        k(  213) = (   0.2916667   0.3333333   0.0000000), wk =   0.0104167
        k(  214) = (   0.2916667   0.3541667   0.0000000), wk =   0.0052083
        k(  215) = (   0.3125000   0.3125000   0.0000000), wk =   0.0052083
        k(  216) = (   0.3125000   0.3333333   0.0000000), wk =   0.0104167
        k(  217) = (   0.3333333   0.3333333   0.0000000), wk =   0.0017361

     Dense  grid:    21817 G-vectors     FFT dimensions: (  20,  20, 135)

     Dynamical RAM for                 wfc:       0.10 MB

     Dynamical RAM for     wfc (w. buffer):       0.10 MB

     Dynamical RAM for           str. fact:       0.08 MB

     Dynamical RAM for           local pot:       0.00 MB

     Dynamical RAM for          nlocal pot:       0.01 MB

     Dynamical RAM for                qrad:       0.02 MB

     Dynamical RAM for          rho,v,vnew:       0.28 MB

     Dynamical RAM for           G-vectors:       0.18 MB

     Dynamical RAM for          h,s,v(r/c):       0.07 MB

     Dynamical RAM for          <psi|beta>:       0.00 MB

     Dynamical RAM for                 psi:       0.41 MB

     Dynamical RAM for                hpsi:       0.41 MB

     Dynamical RAM for      wfcinit/wfcrot:       0.22 MB

     Estimated static dynamical RAM per process >       1.06 MB

     Estimated max dynamical RAM per process >       1.96 MB

     Estimated total dynamical RAM >     109.76 MB

     The potential is recalculated from file :
     run_output/hBN_2D.save/charge-density

     Starting wfcs are    8 randomized atomic wfcs +   12 random wfcs

     Band Structure Calculation
     Davidson diagonalization with overlap

     Computing kpt #:     1  of    31 on this pool
     total cpu time spent up to now is        0.4 secs

     Computing kpt #:     2  of    31 on this pool
     total cpu time spent up to now is        0.6 secs

     Computing kpt #:     3  of    31 on this pool
     total cpu time spent up to now is        0.7 secs

     Computing kpt #:     4  of    31 on this pool
     total cpu time spent up to now is        0.8 secs

     Computing kpt #:     5  of    31 on this pool
     total cpu time spent up to now is        1.0 secs

     Computing kpt #:     6  of    31 on this pool
     total cpu time spent up to now is        1.1 secs

     Computing kpt #:     7  of    31 on this pool
     total cpu time spent up to now is        1.2 secs

     Computing kpt #:     8  of    31 on this pool
     total cpu time spent up to now is        1.4 secs

     Computing kpt #:     9  of    31 on this pool
     total cpu time spent up to now is        1.5 secs

     Computing kpt #:    10  of    31 on this pool
     total cpu time spent up to now is        1.6 secs

     Computing kpt #:    11  of    31 on this pool
     total cpu time spent up to now is        1.8 secs

     Computing kpt #:    12  of    31 on this pool
     total cpu time spent up to now is        1.9 secs

     Computing kpt #:    13  of    31 on this pool
     total cpu time spent up to now is        2.1 secs

     Computing kpt #:    14  of    31 on this pool
     total cpu time spent up to now is        2.2 secs

     Computing kpt #:    15  of    31 on this pool
     total cpu time spent up to now is        2.3 secs

     Computing kpt #:    16  of    31 on this pool
     total cpu time spent up to now is        2.5 secs

     Computing kpt #:    17  of    31 on this pool
     total cpu time spent up to now is        2.6 secs

     Computing kpt #:    18  of    31 on this pool
     total cpu time spent up to now is        2.8 secs

     Computing kpt #:    19  of    31 on this pool
     total cpu time spent up to now is        2.9 secs

     Computing kpt #:    20  of    31 on this pool
     total cpu time spent up to now is        3.0 secs

     Computing kpt #:    21  of    31 on this pool
     total cpu time spent up to now is        3.2 secs

     Computing kpt #:    22  of    31 on this pool
     total cpu time spent up to now is        3.3 secs

     Computing kpt #:    23  of    31 on this pool
     total cpu time spent up to now is        3.5 secs

     Computing kpt #:    24  of    31 on this pool
     total cpu time spent up to now is        3.6 secs

     Computing kpt #:    25  of    31 on this pool
     total cpu time spent up to now is        3.7 secs

     Computing kpt #:    26  of    31 on this pool
     total cpu time spent up to now is        3.9 secs

     Computing kpt #:    27  of    31 on this pool
     total cpu time spent up to now is        4.0 secs

     Computing kpt #:    28  of    31 on this pool
     total cpu time spent up to now is        4.9 secs

     Computing kpt #:    29  of    31 on this pool
     total cpu time spent up to now is        5.0 secs

     Computing kpt #:    30  of    31 on this pool
     total cpu time spent up to now is        5.2 secs

     Computing kpt #:    31  of    31 on this pool
     total cpu time spent up to now is        5.3 secs

     ethr =  1.00E-06,  avg # of iterations = 14.1

     total cpu time spent up to now is        5.3 secs

     End of band structure calculation

          k = 0.0000 0.0000 0.0000 (  2731 PWs)   bands (ev):

   -22.1162  -9.4685  -5.3071  -5.3071   0.6556   1.8007   2.0624   3.3654
     3.8276   6.0487   6.5993   7.4779   7.4779   8.9384   9.3230  11.1015
    12.0110  15.4826  16.7702  21.0437

     occupation numbers 
     1.0000   1.0000   1.0000   1.0000   0.0000   0.0000   0.0000   0.0000
     0.0000   0.0000   0.0000   0.0000   0.0000   0.0000   0.0000   0.0000
     0.0000   0.0000   0.0000   0.0000

          k = 0.0000 0.0241 0.0000 (  2745 PWs)   bands (ev):

   -22.1088  -9.4574  -5.3597  -5.3423   0.6705   1.8140   2.0765   3.3785
     3.8420   6.0596   6.6130   7.4668   7.5135   8.9304   9.3494  11.0985
    12.0296  15.4906  16.7858  21.0709

     occupation numbers 
     1.0000   1.0000   1.0000   1.0000   0.0000   0.0000   0.0000   0.0000
     0.0000   0.0000   0.0000   0.0000   0.0000   0.0000   0.0000   0.0000
     0.0000   0.0000   0.0000   0.0000

          k = 0.0000 0.0481 0.0000 (  2739 PWs)   bands (ev):

   -22.0832  -9.4196  -5.4725  -5.3884   0.7157   1.8545   2.1188   3.4181
     3.8854   6.0922   6.6534   7.4493   7.6343   8.9022   9.4290  11.0893
    12.0851  15.5154  16.8321  21.1509

     occupation numbers 
     1.0000   1.0000   1.0000   1.0000   0.0000   0.0000   0.0000   0.0000
     0.0000   0.0000   0.0000   0.0000   0.0000   0.0000   0.0000   0.0000
     0.0000   0.0000   0.0000   0.0000

          k = 0.0000 0.0722 0.0000 (  2739 PWs)   bands (ev):

   -22.0412  -9.3621  -5.6595  -5.4745   0.7902   1.9210   2.1891   3.4833
     3.9573   6.1438   6.7155   7.4287   7.8282   8.8476   9.5577  11.0810
    12.1767  15.5567  16.9084  21.1471

     occupation numbers 
     1.0000   1.0000   1.0000   1.0000   0.0000   0.0000   0.0000   0.0000
     0.0000   0.0000   0.0000   0.0000   0.0000   0.0000   0.0000   0.0000
     0.0000   0.0000   0.0000   0.0000

          k = 0.0000 0.0962 0.0000 (  2727 PWs)   bands (ev):

   -21.9822  -9.2787  -5.8941  -5.5887   0.8926   2.0145   2.2875   3.5747
     4.0569   6.2148   6.7898   7.4239   8.0940   8.7699   9.7293  11.0847
    12.3027  15.6156  17.0135  21.1182

     occupation numbers 
     1.0000   1.0000   1.0000   1.0000   0.0000   0.0000   0.0000   0.0000
     0.0000   0.0000   0.0000   0.0000   0.0000   0.0000   0.0000   0.0000
     0.0000   0.0000   0.0000   0.0000

          k = 0.0000 0.1203 0.0000 (  2723 PWs)   bands (ev):

   -21.9071  -9.1768  -6.1923  -5.7271   1.0223   2.1334   2.4137   3.6903
     4.1837   6.2962   6.8580   7.4424   8.4299   8.6496   9.9396  11.1067
    12.4614  15.6918  17.1459  21.0263

     occupation numbers 
     1.0000   1.0000   1.0000   1.0000   0.0000   0.0000   0.0000   0.0000
     0.0000   0.0000   0.0000   0.0000   0.0000   0.0000   0.0000   0.0000
     0.0000   0.0000   0.0000   0.0000

          k = 0.0000 0.1443 0.0000 (  2732 PWs)   bands (ev):

   -21.8170  -9.0543  -6.5522  -5.8932   1.1779   2.2776   2.5675   3.8299
     4.3365   6.3819   6.8973   7.5104   8.4996   8.8218  10.1804  11.1586
    12.6495  15.7843  17.3037  20.8151

     occupation numbers 
     1.0000   1.0000   1.0000   1.0000   0.0000   0.0000   0.0000   0.0000
     0.0000   0.0000   0.0000   0.0000   0.0000   0.0000   0.0000   0.0000
     0.0000   0.0000   0.0000   0.0000

          k = 0.0000 0.1684 0.0000 (  2724 PWs)   bands (ev):

   -21.7095  -8.9064  -6.9363  -6.0621   1.3596   2.4473   2.7490   3.9931
     4.5151   6.4603   6.8992   7.6417   8.3414   9.2760  10.4521  11.2456
    12.8661  15.8913  17.4852  20.4559

     occupation numbers 
     1.0000   1.0000   1.0000   1.0000   0.0000   0.0000   0.0000   0.0000
     0.0000   0.0000   0.0000   0.0000   0.0000   0.0000   0.0000   0.0000
     0.0000   0.0000   0.0000   0.0000

          k = 0.0000 0.1925 0.0000 (  2724 PWs)   bands (ev):

   -21.5877  -8.7363  -7.3625  -6.2477   1.5656   2.6407   2.9580   4.1762
     4.7175   6.5022   6.8765   7.8263   8.1984   9.7838  10.7424  11.3685
    13.1046  16.0078  17.6878  19.9923

     occupation numbers 
     1.0000   1.0000   1.0000   1.0000   0.0000   0.0000   0.0000   0.0000
     0.0000   0.0000   0.0000   0.0000   0.0000   0.0000   0.0000   0.0000
     0.0000   0.0000   0.0000   0.0000

          k = 0.0000 0.2165 0.0000 (  2710 PWs)   bands (ev):

   -21.4500  -8.5443  -7.7945  -6.4296   1.7967   2.8559   3.1944   4.3750
     4.9429   6.4776   6.8436   8.0542   8.1229  10.3326  11.0576  11.5264
    13.3651  16.1243  17.9083  19.4993

     occupation numbers 
     1.0000   1.0000   1.0000   1.0000   0.0000   0.0000   0.0000   0.0000
     0.0000   0.0000   0.0000   0.0000   0.0000   0.0000   0.0000   0.0000
     0.0000   0.0000   0.0000   0.0000

          k = 0.0000 0.2406 0.0000 (  2694 PWs)   bands (ev):

   -21.2981  -8.3290  -8.2500  -6.6100   2.0517   3.0897   3.4581   4.5801
     5.1880   6.3741   6.8119   8.1500   8.3152  10.9196  11.3872  11.7167
    13.6387  16.2247  18.1400  19.0345

     occupation numbers 
     1.0000   1.0000   1.0000   1.0000   0.0000   0.0000   0.0000   0.0000
     0.0000   0.0000   0.0000   0.0000   0.0000   0.0000   0.0000   0.0000
     0.0000   0.0000   0.0000   0.0000

          k = 0.0000 0.2646 0.0000 (  2696 PWs)   bands (ev):

   -21.1346  -8.7220  -8.1011  -6.7981   2.3293   3.3297   3.7487   4.7627
     5.4470   6.2150   6.7905   8.2772   8.6044  11.5376  11.7231  11.9353
    13.9158  16.2788  18.3638  18.6377

     occupation numbers 
     1.0000   1.0000   1.0000   1.0000   0.0000   0.0000   0.0000   0.0000
     0.0000   0.0000   0.0000   0.0000   0.0000   0.0000   0.0000   0.0000
     0.0000   0.0000   0.0000   0.0000

          k = 0.0000 0.2887 0.0000 (  2694 PWs)   bands (ev):

   -20.9586  -9.1901  -7.8538  -6.9838   2.6298   3.5544   4.0663   4.8773
     5.7092   6.1086   6.7987   8.4849   8.9215  12.0659  12.1771  12.1783
    14.1880  16.2478  18.3449  18.4906

     occupation numbers 
     1.0000   1.0000   1.0000   1.0000   0.0000   0.0000   0.0000   0.0000
     0.0000   0.0000   0.0000   0.0000   0.0000   0.0000   0.0000   0.0000
     0.0000   0.0000   0.0000   0.0000

          k = 0.0000 0.3127 0.0000 (  2690 PWs)   bands (ev):

   -20.7717  -9.6592  -7.5875  -7.1631   2.9512   3.7055   4.4100   4.9098
     5.9505   6.1644   6.8612   8.7511   9.2646  12.4035  12.4402  12.8388
    14.4363  16.1026  18.1546  18.1785

     occupation numbers 
     1.0000   1.0000   1.0000   1.0000   0.0000   0.0000   0.0000   0.0000
     0.0000   0.0000   0.0000   0.0000   0.0000   0.0000   0.0000   0.0000
     0.0000   0.0000   0.0000   0.0000

          k = 0.0000 0.3368 0.0000 (  2700 PWs)   bands (ev):

   -20.5773 -10.1339  -7.3349  -7.3066   3.2900   3.6724   4.7787   4.9862
     6.1350   6.3800   7.0176   9.0612   9.6311  12.7079  12.7125  13.5051
    14.6326  15.8494  17.5489  17.9421

     occupation numbers 
     1.0000   1.0000   1.0000   1.0000   0.0000   0.0000   0.0000   0.0000
     0.0000   0.0000   0.0000   0.0000   0.0000   0.0000   0.0000   0.0000
     0.0000   0.0000   0.0000   0.0000

          k = 0.0000 0.3608 0.0000 (  2706 PWs)   bands (ev):

   -20.3766 -10.5882  -7.4965  -7.0160   3.4235   3.6454   5.1703   5.2127
     6.2563   6.6940   7.2841   9.4058  10.0219  12.9505  12.9799  14.1734
    14.7591  15.5242  16.9001  17.4609

     occupation numbers 
     1.0000   1.0000   1.0000   1.0000   0.0000   0.0000   0.0000   0.0000
     0.0000   0.0000   0.0000   0.0000   0.0000   0.0000   0.0000   0.0000
     0.0000   0.0000   0.0000   0.0000

          k = 0.0000 0.3849 0.0000 (  2722 PWs)   bands (ev):

   -20.1737 -11.0274  -7.6487  -6.7179   3.0519   4.0086   5.5494   5.5774
     6.3493   7.0669   7.6350   9.7787  10.4314  13.0350  13.2122  14.8293
    14.8394  15.1674  16.1967  16.7948

     occupation numbers 
     1.0000   1.0000   1.0000   1.0000   0.0000   0.0000   0.0000   0.0000
     0.0000   0.0000   0.0000   0.0000   0.0000   0.0000   0.0000   0.0000
     0.0000   0.0000   0.0000   0.0000

          k = 0.0000 0.4090 0.0000 (  2734 PWs)   bands (ev):

   -19.9702 -11.4441  -7.7904  -6.4089   2.6313   4.3708   5.9502   5.9746
     6.4797   7.4818   8.0436  10.1748  10.8568  12.8846  13.3435  14.8288
    14.8959  15.4510  15.4885  16.1315

     occupation numbers 
     1.0000   1.0000   1.0000   1.0000   0.0000   0.0000   0.0000   0.0000
     0.0000   0.0000   0.0000   0.0000   0.0000   0.0000   0.0000   0.0000
     0.0000   0.0000   0.0000   0.0000

          k = 0.0000 0.4330 0.0000 (  2736 PWs)   bands (ev):

   -19.7702 -11.8220  -7.9159  -6.1017   2.2029   4.7139   6.2915   6.3940
     6.7511   7.9297   8.4944  10.5853  11.2782  12.5345  13.2564  14.5157
    14.5664  15.1683  15.5607  16.1121

     occupation numbers 
     1.0000   1.0000   1.0000   1.0000   0.0000   0.0000   0.0000   0.0000
     0.0000   0.0000   0.0000   0.0000   0.0000   0.0000   0.0000   0.0000
     0.0000   0.0000   0.0000   0.0000

          k = 0.0000 0.4571 0.0000 (  2720 PWs)   bands (ev):

   -19.5789 -12.1597  -8.0020  -5.8007   1.7924   5.0105   6.5392   6.8717
     7.1855   8.4061   8.9787  10.9954  11.5372  12.2300  12.9214  13.7518
    14.2748  15.0361  15.2074  15.9530

     occupation numbers 
     1.0000   1.0000   1.0000   1.0000   0.0000   0.0000   0.0000   0.0000
     0.0000   0.0000   0.0000   0.0000   0.0000   0.0000   0.0000   0.0000
     0.0000   0.0000   0.0000   0.0000

          k = 0.0000 0.4811 0.0000 (  2724 PWs)   bands (ev):

   -19.4063 -12.4639  -8.0872  -5.5198   1.4111   5.2313   6.8309   7.3771
     7.6975   8.9056   9.4879  11.1957  11.3484  12.4664  12.4860  12.9921
    13.8067  14.5180  15.0736  16.0887

     occupation numbers 
     1.0000   1.0000   1.0000   1.0000   0.0000   0.0000   0.0000   0.0000
     0.0000   0.0000   0.0000   0.0000   0.0000   0.0000   0.0000   0.0000
     0.0000   0.0000   0.0000   0.0000

          k = 0.0000 0.5052 0.0000 (  2720 PWs)   bands (ev):

   -19.2588 -12.7054  -8.1506  -5.2748   1.0788   5.3753   7.2079   7.9057
     8.2517   9.4210   9.9955  10.6595  11.3946  12.2112  12.2614  12.9535
    13.2830  13.9002  14.9395  16.1236

     occupation numbers 
     1.0000   1.0000   1.0000   1.0000   0.0000   0.0000   0.0000   0.0000
     0.0000   0.0000   0.0000   0.0000   0.0000   0.0000   0.0000   0.0000
     0.0000   0.0000   0.0000   0.0000

          k = 0.0000 0.5292 0.0000 (  2720 PWs)   bands (ev):

   -19.1457 -12.8885  -8.1975  -5.0817   0.8212   5.4575   7.6572   8.4498
     8.8367   9.9260   9.9477  10.6770  11.0004  11.4935  12.2453  12.9679
    13.0920  13.6187  14.7182  15.8134

     occupation numbers 
     1.0000   1.0000   1.0000   1.0000   0.0000   0.0000   0.0000   0.0000
     0.0000   0.0000   0.0000   0.0000   0.0000   0.0000   0.0000   0.0000
     0.0000   0.0000   0.0000   0.0000

          k = 0.0000 0.5533 0.0000 (  2726 PWs)   bands (ev):

   -19.0740 -13.0004  -8.2349  -4.9602   0.6526   5.4986   8.1462   8.9868
     9.3319   9.5212  10.1703  10.7521  10.7816  11.2484  11.8529  12.5103
    13.1242  14.0745  14.4568  15.3398

     occupation numbers 
     1.0000   1.0000   1.0000   1.0000   0.0000   0.0000   0.0000   0.0000
     0.0000   0.0000   0.0000   0.0000   0.0000   0.0000   0.0000   0.0000
     0.0000   0.0000   0.0000   0.0000

          k = 0.0000-0.5774 0.0000 (  2736 PWs)   bands (ev):

   -19.0515 -13.0504  -8.2436  -4.9131   0.5964   5.5097   8.4971   9.0024
     9.3362   9.9344  10.0843  10.1454  10.9923  11.5082  11.7368  11.9969
    13.2664  14.3165  14.4060  15.0055

     occupation numbers 
     1.0000   1.0000   1.0000   1.0000   0.0000   0.0000   0.0000   0.0000
     0.0000   0.0000   0.0000   0.0000   0.0000   0.0000   0.0000   0.0000
     0.0000   0.0000   0.0000   0.0000

          k = 0.0208 0.0361 0.0000 (  2743 PWs)   bands (ev):

   -22.0919  -9.4338  -5.4334  -5.3742   0.7007   1.8407   2.1047   3.4046
     3.8710   6.0807   6.6402   7.4566   7.5915   8.9092   9.4028  11.0911
    12.0667  15.5069  16.8167  21.1250

     occupation numbers 
     1.0000   1.0000   1.0000   1.0000   0.0000   0.0000   0.0000   0.0000
     0.0000   0.0000   0.0000   0.0000   0.0000   0.0000   0.0000   0.0000
     0.0000   0.0000   0.0000   0.0000

          k = 0.0208 0.0601 0.0000 (  2745 PWs)   bands (ev):

   -22.0585  -9.3871  -5.5850  -5.4490   0.7605   1.8942   2.1610   3.4569
     3.9286   6.1228   6.6924   7.4372   7.7440   8.8689   9.5071  11.0832
    12.1402  15.5399  16.8780  21.1494

     occupation numbers 
     1.0000   1.0000   1.0000   1.0000   0.0000   0.0000   0.0000   0.0000
     0.0000   0.0000   0.0000   0.0000   0.0000   0.0000   0.0000   0.0000
     0.0000   0.0000   0.0000   0.0000

          k = 0.0208 0.0842 0.0000 (  2727 PWs)   bands (ev):

   -22.0073  -9.3143  -5.7833  -5.5406   0.8490   1.9746   2.2454   3.5357
     4.0145   6.1854   6.7634   7.4257   7.9736   8.8071   9.6589  11.0823
    12.2492  15.5902  16.9687  21.1335

     occupation numbers 
     1.0000   1.0000   1.0000   1.0000   0.0000   0.0000   0.0000   0.0000
     0.0000   0.0000   0.0000   0.0000   0.0000   0.0000   0.0000   0.0000
     0.0000   0.0000   0.0000   0.0000

          k = 0.0208 0.1083 0.0000 (  2731 PWs)   bands (ev):

   -21.9407  -9.2226  -6.0649  -5.6744   0.9650   2.0805   2.3576   3.6389
     4.1277   6.2605   6.8397   7.4276   8.2660   8.7017   9.8518  11.0939
    12.3915  15.6578  17.0874  21.0725

     occupation numbers 
     1.0000   1.0000   1.0000   1.0000   0.0000   0.0000   0.0000   0.0000
     0.0000   0.0000   0.0000   0.0000   0.0000   0.0000   0.0000   0.0000
     0.0000   0.0000   0.0000   0.0000

          k = 0.0208 0.1323 0.0000 (  2724 PWs)   bands (ev):

   -21.8577  -9.1097  -6.3802  -5.8229   1.1079   2.2122   2.4977   3.7669
     4.2677   6.3457   6.9012   7.4715   8.5694   8.6209  10.0840  11.1325
    12.5662  15.7422  17.2326  20.9144

     occupation numbers 
     1.0000   1.0000   1.0000   1.0000   0.0000   0.0000   0.0000   0.0000
     0.0000   0.0000   0.0000   0.0000   0.0000   0.0000   0.0000   0.0000
     0.0000   0.0000   0.0000   0.0000

          k = 0.0208 0.1564 0.0000 (  2726 PWs)   bands (ev):

   -21.7591  -8.9740  -6.7498  -5.9971   1.2764   2.3693   2.6654   3.9183
     4.4336   6.4285   6.9258   7.5695   8.4124   9.0340  10.3465  11.2028
    12.7692  15.8421  17.4023  20.6095

     occupation numbers 
     1.0000   1.0000   1.0000   1.0000   0.0000   0.0000   0.0000   0.0000
     0.0000   0.0000   0.0000   0.0000   0.0000   0.0000   0.0000   0.0000
     0.0000   0.0000   0.0000   0.0000

          k = 0.0208 0.1804 0.0000 (  2720 PWs)   bands (ev):

   -21.6442  -8.8153  -7.1544  -6.1700   1.4705   2.5509   2.8607   4.0917
     4.6246   6.4909   6.9168   7.7300   8.2593   9.4978  10.6395  11.3088
    12.9989  15.9538  17.5946  20.1739

     occupation numbers 
     1.0000   1.0000   1.0000   1.0000   0.0000   0.0000   0.0000   0.0000
     0.0000   0.0000   0.0000   0.0000   0.0000   0.0000   0.0000   0.0000
     0.0000   0.0000   0.0000   0.0000

          k = 0.0208 0.2045 0.0000 (  2718 PWs)   bands (ev):

   -21.5147  -8.6355  -7.5893  -6.3555   1.6891   2.7554   3.0834   4.2832
     4.8390   6.5015   6.8887   7.9379   8.1488  10.0005  10.9578  11.4501
    13.2501  16.0697  17.8065  19.6806

     occupation numbers 
     1.0000   1.0000   1.0000   1.0000   0.0000   0.0000   0.0000   0.0000
     0.0000   0.0000   0.0000   0.0000   0.0000   0.0000   0.0000   0.0000
     0.0000   0.0000   0.0000   0.0000

          k = 0.0208 0.2285 0.0000 (  2703 PWs)   bands (ev):

   -21.3698  -8.4323  -8.0287  -6.5396   1.9324   2.9799   3.3335   4.4858
     5.0753   6.4315   6.8566   8.1247   8.1841  10.5385  11.3074  11.6249
    13.5209  16.1773  18.0338  19.1964

     occupation numbers 
     1.0000   1.0000   1.0000   1.0000   0.0000   0.0000   0.0000   0.0000
     0.0000   0.0000   0.0000   0.0000   0.0000   0.0000   0.0000   0.0000
     0.0000   0.0000   0.0000   0.0000

          k = 0.0208 0.2526 0.0000 (  2701 PWs)   bands (ev):

   -21.2125  -8.4936  -8.2091  -6.7374   2.1987   3.2186   3.6107   4.6837
     5.3291   6.2926   6.8294   8.2071   8.4603  11.0840  11.6863  11.8298
    13.7998  16.2528  18.2655  18.7692

     occupation numbers 
     1.0000   1.0000   1.0000   1.0000   0.0000   0.0000   0.0000   0.0000
     0.0000   0.0000   0.0000   0.0000   0.0000   0.0000   0.0000   0.0000
     0.0000   0.0000   0.0000   0.0000

          k = 0.0208 0.2766 0.0000 (  2697 PWs)   bands (ev):

   -21.0425  -8.9556  -7.9720  -6.9228   2.4883   3.4543   3.9149   4.8369
     5.5935   6.1459   6.8202   8.3795   8.7650  11.6109  12.0607  12.1249
    14.0816  16.2592  18.4368  18.4637

     occupation numbers 
     1.0000   1.0000   1.0000   1.0000   0.0000   0.0000   0.0000   0.0000
     0.0000   0.0000   0.0000   0.0000   0.0000   0.0000   0.0000   0.0000
     0.0000   0.0000   0.0000   0.0000

          k = 0.0208 0.3007 0.0000 (  2692 PWs)   bands (ev):

   -20.8606  -9.4278  -7.7125  -7.1006   2.7998   3.6517   4.2457   4.9024
     5.8523   6.1167   6.8484   8.6198   9.0956  12.0715  12.3136  12.6512
    14.3488  16.1615  18.2217  18.4184

     occupation numbers 
     1.0000   1.0000   1.0000   1.0000   0.0000   0.0000   0.0000   0.0000
     0.0000   0.0000   0.0000   0.0000   0.0000   0.0000   0.0000   0.0000
     0.0000   0.0000   0.0000   0.0000

          k = 0.0208 0.3248 0.0000 (  2696 PWs)   bands (ev):

   -20.6698  -9.9000  -7.4403  -7.2739   3.1308   3.7191   4.6023   4.9347
     6.0742   6.2627   6.9482   8.9096   9.4511  12.4582  12.5804  13.2453
    14.5792  15.9510  17.8832  18.0663

     occupation numbers 
     1.0000   1.0000   1.0000   1.0000   0.0000   0.0000   0.0000   0.0000
     0.0000   0.0000   0.0000   0.0000   0.0000   0.0000   0.0000   0.0000
     0.0000   0.0000   0.0000   0.0000

          k = 0.0208 0.3488 0.0000 (  2707 PWs)   bands (ev):

   -20.4726 -10.3648  -7.4459  -7.1541   3.4788   3.5674   4.9832   5.0884
     6.2304   6.5361   7.1550   9.2378   9.8297  12.7691  12.8500  13.8748
    14.7454  15.6582  17.2364  17.7418

     occupation numbers 
     1.0000   1.0000   1.0000   1.0000   0.0000   0.0000   0.0000   0.0000
     0.0000   0.0000   0.0000   0.0000   0.0000   0.0000   0.0000   0.0000
     0.0000   0.0000   0.0000   0.0000

          k = 0.0208 0.3729 0.0000 (  2713 PWs)   bands (ev):

   -20.2702 -10.8086  -7.6036  -6.8578   3.2459   3.8405   5.3795   5.3848
     6.3336   6.8834   7.4643   9.5970  10.2311  12.9718  13.1007  14.5136
    14.8373  15.3229  16.5748  17.1275

     occupation numbers 
     1.0000   1.0000   1.0000   1.0000   0.0000   0.0000   0.0000   0.0000
     0.0000   0.0000   0.0000   0.0000   0.0000   0.0000   0.0000   0.0000
     0.0000   0.0000   0.0000   0.0000

          k = 0.0208 0.3969 0.0000 (  2724 PWs)   bands (ev):

   -20.0664 -11.2362  -7.7449  -6.5547   2.8445   4.2064   5.7526   5.7944
     6.4339   7.2788   7.8452   9.9815  10.6498  12.9677  13.2873  14.8720
    14.9842  15.1669  15.8365  16.4472

     occupation numbers 
     1.0000   1.0000   1.0000   1.0000   0.0000   0.0000   0.0000   0.0000
     0.0000   0.0000   0.0000   0.0000   0.0000   0.0000   0.0000   0.0000
     0.0000   0.0000   0.0000   0.0000

          k = 0.0208 0.4210 0.0000 (  2724 PWs)   bands (ev):

   -19.8632 -11.6313  -7.8698  -6.2473   2.4190   4.5652   6.1673   6.1766
     6.6128   7.7107   8.2756  10.3848  11.0789  12.7230  13.3178  14.6941
    14.8229  15.2050  15.7807  15.8234

     occupation numbers 
     1.0000   1.0000   1.0000   1.0000   0.0000   0.0000   0.0000   0.0000
     0.0000   0.0000   0.0000   0.0000   0.0000   0.0000   0.0000   0.0000
     0.0000   0.0000   0.0000   0.0000

          k = 0.0208 0.4450 0.0000 (  2724 PWs)   bands (ev):

   -19.6674 -11.9946  -7.9792  -5.9428   1.9950   4.8924   6.4396   6.6380
     6.9678   8.1731   8.7432  10.7962  11.4614  12.3472  13.1007  14.1468
    14.4417  15.1474  15.3532  15.9995

     occupation numbers 
     1.0000   1.0000   1.0000   1.0000   0.0000   0.0000   0.0000   0.0000
     0.0000   0.0000   0.0000   0.0000   0.0000   0.0000   0.0000   0.0000
     0.0000   0.0000   0.0000   0.0000

          k = 0.0208 0.4691 0.0000 (  2724 PWs)   bands (ev):

   -19.4853 -12.3148  -8.0748  -5.6522   1.5967   5.1582   6.6965   7.1297
     7.4465   8.6611   9.2407  11.1867  11.4303  12.3026  12.7004  13.3764
    14.0529  14.8051  15.1287  16.0075

     occupation numbers 
     1.0000   1.0000   1.0000   1.0000   0.0000   0.0000   0.0000   0.0000
     0.0000   0.0000   0.0000   0.0000   0.0000   0.0000   0.0000   0.0000
     0.0000   0.0000   0.0000   0.0000

          k = 0.0208 0.4932 0.0000 (  2722 PWs)   bands (ev):

   -19.3242 -12.5871  -8.1475  -5.3875   1.2386   5.3447   7.0262   7.6470
     7.9810   9.1693   9.7572  10.9341  11.4342  12.3266  12.5520  12.7715
    13.5407  14.2164  15.0011  16.1384

     occupation numbers 
     1.0000   1.0000   1.0000   1.0000   0.0000   0.0000   0.0000   0.0000
     0.0000   0.0000   0.0000   0.0000   0.0000   0.0000   0.0000   0.0000
     0.0000   0.0000   0.0000   0.0000

          k = 0.0208 0.5172 0.0000 (  2726 PWs)   bands (ev):

   -19.1935 -12.8030  -8.2061  -5.1672   0.9399   5.4577   7.4384   8.1838
     8.5513   9.6844  10.1354  10.5189  11.2234  11.8603  12.2834  13.0743
    13.1514  13.6428  14.8177  16.0005

     occupation numbers 
     1.0000   1.0000   1.0000   1.0000   0.0000   0.0000   0.0000   0.0000
     0.0000   0.0000   0.0000   0.0000   0.0000   0.0000   0.0000   0.0000
     0.0000   0.0000   0.0000   0.0000

          k = 0.0208 0.5413 0.0000 (  2724 PWs)   bands (ev):

   -19.1000 -12.9497  -8.2449  -5.0051   0.7255   5.5193   7.9114   8.7287
     9.1448   9.6917  10.1321  10.8056  10.9435  11.1645  12.0827  12.8261
    13.0173  13.8388  14.5749  15.5865

     occupation numbers 
     1.0000   1.0000   1.0000   1.0000   0.0000   0.0000   0.0000   0.0000
     0.0000   0.0000   0.0000   0.0000   0.0000   0.0000   0.0000   0.0000
     0.0000   0.0000   0.0000   0.0000

          k = 0.0208 0.5653 0.0000 (  2724 PWs)   bands (ev):

   -19.0521 -13.0300  -8.2602  -4.9142   0.6135   5.5455   8.3846   9.1402
     9.2253   9.8028  10.0383  10.4574  10.8965  11.5430  11.6335  12.2163
    13.2183  14.3034  14.3601  15.1252

     occupation numbers 
     1.0000   1.0000   1.0000   1.0000   0.0000   0.0000   0.0000   0.0000
     0.0000   0.0000   0.0000   0.0000   0.0000   0.0000   0.0000   0.0000
     0.0000   0.0000   0.0000   0.0000

          k = 0.0417 0.0722 0.0000 (  2733 PWs)   bands (ev):

   -22.0159  -9.3256  -5.7503  -5.5335   0.8344   1.9612   2.2313   3.5226
     4.0003   6.1748   6.7554   7.4285   7.9276   8.8153   9.6362  11.0808
    12.2313  15.5819  16.9537  21.1373

     occupation numbers 
     1.0000   1.0000   1.0000   1.0000   0.0000   0.0000   0.0000   0.0000
     0.0000   0.0000   0.0000   0.0000   0.0000   0.0000   0.0000   0.0000
     0.0000   0.0000   0.0000   0.0000

          k = 0.0417 0.0962 0.0000 (  2729 PWs)   bands (ev):

   -21.9573  -9.2444  -5.9879  -5.6483   0.9363   2.0541   2.3296   3.6132
     4.0997   6.2422   6.8353   7.4270   8.1731   8.7274   9.8117  11.0889
    12.3568  15.6410  17.0580  21.0886

     occupation numbers 
     1.0000   1.0000   1.0000   1.0000   0.0000   0.0000   0.0000   0.0000
     0.0000   0.0000   0.0000   0.0000   0.0000   0.0000   0.0000   0.0000
     0.0000   0.0000   0.0000   0.0000

          k = 0.0417 0.1203 0.0000 (  2725 PWs)   bands (ev):

   -21.8825  -9.1415  -6.2764  -5.7920   1.0655   2.1729   2.4557   3.7287
     4.2264   6.3211   6.9173   7.4477   8.4769   8.6068  10.0324  11.1182
    12.5157  15.7171  17.1896  20.9559

     occupation numbers 
     1.0000   1.0000   1.0000   1.0000   0.0000   0.0000   0.0000   0.0000
     0.0000   0.0000   0.0000   0.0000   0.0000   0.0000   0.0000   0.0000
     0.0000   0.0000   0.0000   0.0000

          k = 0.0417 0.1443 0.0000 (  2714 PWs)   bands (ev):

   -21.7910  -9.0138  -6.6109  -5.9509   1.2214   2.3179   2.6097   3.8691
     4.3798   6.4065   6.9764   7.5159   8.4681   8.8304  10.2957  11.1774
    12.7067  15.8092  17.3467  20.6800

     occupation numbers 
     1.0000   1.0000   1.0000   1.0000   0.0000   0.0000   0.0000   0.0000
     0.0000   0.0000   0.0000   0.0000   0.0000   0.0000   0.0000   0.0000
     0.0000   0.0000   0.0000   0.0000

          k = 0.0417 0.1684 0.0000 (  2706 PWs)   bands (ev):

   -21.6843  -8.8657  -6.9848  -6.1246   1.4029   2.4876   2.7912   4.0319
     4.5589   6.4798   6.9967   7.6470   8.3180   9.2285  10.5949  11.2693
    12.9264  15.9137  17.5275  20.2567

     occupation numbers 
     1.0000   1.0000   1.0000   1.0000   0.0000   0.0000   0.0000   0.0000
     0.0000   0.0000   0.0000   0.0000   0.0000   0.0000   0.0000   0.0000
     0.0000   0.0000   0.0000   0.0000

          k = 0.0417 0.1925 0.0000 (  2717 PWs)   bands (ev):

   -21.5631  -8.7005  -7.4030  -6.3223   1.6091   2.6797   3.0002   4.2131
     4.7624   6.5093   6.9841   7.8328   8.1843   9.6630  10.9246  11.3953
    13.1705  16.0243  17.7295  19.7578

     occupation numbers 
     1.0000   1.0000   1.0000   1.0000   0.0000   0.0000   0.0000   0.0000
     0.0000   0.0000   0.0000   0.0000   0.0000   0.0000   0.0000   0.0000
     0.0000   0.0000   0.0000   0.0000

          k = 0.0417 0.2165 0.0000 (  2713 PWs)   bands (ev):

   -21.4262  -8.5093  -7.8351  -6.5176   1.8404   2.8939   3.2367   4.4098
     4.9893   6.4715   6.9589   8.0639   8.1236  10.1295  11.2898  11.5551
    13.4379  16.1304  17.9496  19.2583

     occupation numbers 
     1.0000   1.0000   1.0000   1.0000   0.0000   0.0000   0.0000   0.0000
     0.0000   0.0000   0.0000   0.0000   0.0000   0.0000   0.0000   0.0000
     0.0000   0.0000   0.0000   0.0000

          k = 0.0417 0.2406 0.0000 (  2711 PWs)   bands (ev):

   -21.2755  -8.2993  -8.2850  -6.7135   2.0958   3.1249   3.5005   4.6093
     5.2370   6.3546   6.9307   8.1642   8.3284  10.6116  11.6882  11.7457
    13.7223  16.2103  18.1811  18.8106

     occupation numbers 
     1.0000   1.0000   1.0000   1.0000   0.0000   0.0000   0.0000   0.0000
     0.0000   0.0000   0.0000   0.0000   0.0000   0.0000   0.0000   0.0000
     0.0000   0.0000   0.0000   0.0000

          k = 0.0417 0.2646 0.0000 (  2695 PWs)   bands (ev):

   -21.1109  -8.7382  -8.0648  -6.8992   2.3748   3.3642   3.7914   4.7880
     5.5009   6.2051   6.9134   8.3024   8.6230  11.1032  11.9640  12.1273
    14.0172  16.2319  18.4053  18.4602

     occupation numbers 
     1.0000   1.0000   1.0000   1.0000   0.0000   0.0000   0.0000   0.0000
     0.0000   0.0000   0.0000   0.0000   0.0000   0.0000   0.0000   0.0000
     0.0000   0.0000   0.0000   0.0000

          k = 0.0417 0.2887 0.0000 (  2697 PWs)   bands (ev):

   -20.9355  -9.2042  -7.8183  -7.0896   2.6763   3.5841   4.1093   4.8938
     5.7715   6.1145   6.9151   8.5153   8.9426  11.5797  12.2043  12.6021
    14.3064  16.1545  18.2386  18.5321

     occupation numbers 
     1.0000   1.0000   1.0000   1.0000   0.0000   0.0000   0.0000   0.0000
     0.0000   0.0000   0.0000   0.0000   0.0000   0.0000   0.0000   0.0000
     0.0000   0.0000   0.0000   0.0000

          k = 0.0417 0.3127 0.0000 (  2703 PWs)   bands (ev):

   -20.7500  -9.6750  -7.5569  -7.2676   2.9986   3.7204   4.4534   4.9207
     6.0278   6.1858   6.9637   8.7834   9.2873  12.0287  12.4609  13.1184
    14.5701  15.9685  18.1247  18.2177

     occupation numbers 
     1.0000   1.0000   1.0000   1.0000   0.0000   0.0000   0.0000   0.0000
     0.0000   0.0000   0.0000   0.0000   0.0000   0.0000   0.0000   0.0000
     0.0000   0.0000   0.0000   0.0000

          k = 0.0417 0.3368 0.0000 (  2705 PWs)   bands (ev):

   -20.5561 -10.1341  -7.4379  -7.2781   3.3401   3.6694   4.8231   5.0084
     6.2357   6.4108   7.0988   9.0937   9.6562  12.4237  12.7242  13.6714
    14.7842  15.7047  17.5916  17.9555

     occupation numbers 
     1.0000   1.0000   1.0000   1.0000   0.0000   0.0000   0.0000   0.0000
     0.0000   0.0000   0.0000   0.0000   0.0000   0.0000   0.0000   0.0000
     0.0000   0.0000   0.0000   0.0000

          k = 0.0417 0.3608 0.0000 (  2717 PWs)   bands (ev):

   -20.3566 -10.5914  -7.6000  -6.9870   3.4115   3.6976   5.2162   5.2442
     6.3733   6.7283   7.3444   9.4374  10.0465  12.7330  12.9765  14.2435
    14.9092  15.4039  16.9525  17.4469

     occupation numbers 
     1.0000   1.0000   1.0000   1.0000   0.0000   0.0000   0.0000   0.0000
     0.0000   0.0000   0.0000   0.0000   0.0000   0.0000   0.0000   0.0000
     0.0000   0.0000   0.0000   0.0000

          k = 0.0417 0.3849 0.0000 (  2719 PWs)   bands (ev):

   -20.1525 -11.0210  -7.7505  -6.6847   3.0427   4.0666   5.5849   5.6274
     6.4705   7.1027   7.6853   9.8087  10.4584  12.8999  13.1852  14.7881
    14.9786  15.1030  16.2593  16.7613

     occupation numbers 
     1.0000   1.0000   1.0000   1.0000   0.0000   0.0000   0.0000   0.0000
     0.0000   0.0000   0.0000   0.0000   0.0000   0.0000   0.0000   0.0000
     0.0000   0.0000   0.0000   0.0000

          k = 0.0417 0.4090 0.0000 (  2722 PWs)   bands (ev):

   -19.9489 -11.4278  -7.8857  -6.3790   2.6276   4.4375   5.9867   6.0375
     6.5867   7.5173   8.0891  10.2008  10.8845  12.8308  13.2845  14.8325
    14.9021  15.3946  15.5551  16.1003

     occupation numbers 
     1.0000   1.0000   1.0000   1.0000   0.0000   0.0000   0.0000   0.0000
     0.0000   0.0000   0.0000   0.0000   0.0000   0.0000   0.0000   0.0000
     0.0000   0.0000   0.0000   0.0000

          k = 0.0417 0.4330 0.0000 (  2726 PWs)   bands (ev):

   -19.7493 -11.8084  -8.0057  -6.0731   2.2025   4.7928   6.3808   6.4305
     6.8210   7.9645   8.5370  10.6054  11.3017  12.5344  13.1892  14.5385
    14.5917  15.1535  15.5601  15.9420

     occupation numbers 
     1.0000   1.0000   1.0000   1.0000   0.0000   0.0000   0.0000   0.0000
     0.0000   0.0000   0.0000   0.0000   0.0000   0.0000   0.0000   0.0000
     0.0000   0.0000   0.0000   0.0000

          k = 0.0417 0.4571 0.0000 (  2726 PWs)   bands (ev):

   -19.5598 -12.1505  -8.1069  -5.7747   1.7902   5.1065   6.6319   6.9070
     7.2348   8.4390   9.0191  11.0040  11.5458  12.2659  12.8881  13.7880
    14.2612  15.0120  15.2334  15.9833

     occupation numbers 
     1.0000   1.0000   1.0000   1.0000   0.0000   0.0000   0.0000   0.0000
     0.0000   0.0000   0.0000   0.0000   0.0000   0.0000   0.0000   0.0000
     0.0000   0.0000   0.0000   0.0000

          k = 0.0417 0.4811 0.0000 (  2722 PWs)   bands (ev):

   -19.3875 -12.4436  -8.1915  -5.4957   1.4110   5.3491   6.9093   7.4110
     7.7417   8.9362   9.5277  11.2191  11.3379  12.4991  12.5049  13.0323
    13.7919  14.5347  15.0480  16.0727

     occupation numbers 
     1.0000   1.0000   1.0000   1.0000   0.0000   0.0000   0.0000   0.0000
     0.0000   0.0000   0.0000   0.0000   0.0000   0.0000   0.0000   0.0000
     0.0000   0.0000   0.0000   0.0000

          k = 0.0417 0.5052 0.0000 (  2726 PWs)   bands (ev):

   -19.2412 -12.6913  -8.2572  -5.2517   1.0831   5.5087   7.2696   7.9372
     8.2940   9.4475  10.0313  10.6931  11.3785  12.2508  12.2890  12.9879
    13.2945  13.9317  14.8614  16.0946

     occupation numbers 
     1.0000   1.0000   1.0000   1.0000   0.0000   0.0000   0.0000   0.0000
     0.0000   0.0000   0.0000   0.0000   0.0000   0.0000   0.0000   0.0000
     0.0000   0.0000   0.0000   0.0000

          k = 0.0417 0.5292 0.0000 (  2722 PWs)   bands (ev):

   -19.1282 -12.8683  -8.3031  -5.0599   0.8247   5.6019   7.7081   8.4773
     8.8782   9.9446   9.9822  10.7183  11.0147  11.5344  12.2420  12.9978
    13.1228  13.6572  14.6502  15.8174

     occupation numbers 
     1.0000   1.0000   1.0000   1.0000   0.0000   0.0000   0.0000   0.0000
     0.0000   0.0000   0.0000   0.0000   0.0000   0.0000   0.0000   0.0000
     0.0000   0.0000   0.0000   0.0000

          k = 0.0417 0.5533 0.0000 (  2723 PWs)   bands (ev):

   -19.0570 -12.9847  -8.3266  -4.9346   0.6598   5.6474   8.1881   9.0070
     9.3706   9.5644  10.1835  10.7851  10.8224  11.2877  11.8671  12.5466
    13.1146  14.1049  14.4450  15.3648

     occupation numbers 
[...]

   -19.8723 -10.8944  -9.0217  -6.2769   2.8765   4.7500   6.0683   6.2416
     7.5780   7.9306   9.0662  10.1234  10.1661  11.7887  12.4140  14.8732
    15.2191  16.1125  17.5084  17.6838

     occupation numbers 
     1.0000   1.0000   1.0000   1.0000   0.0000   0.0000   0.0000   0.0000
     0.0000   0.0000   0.0000   0.0000   0.0000   0.0000   0.0000   0.0000
     0.0000   0.0000   0.0000   0.0000

          k = 0.2083 0.3849 0.0000 (  2721 PWs)   bands (ev):

   -19.6850 -11.1625  -9.2552  -5.9940   2.5510   5.1571   6.4449   6.6714
     7.9496   8.3341   9.2613  10.3528  10.4687  12.1070  12.3007  15.1243
    15.5440  15.8649  17.0307  17.1081

     occupation numbers 
     1.0000   1.0000   1.0000   1.0000   0.0000   0.0000   0.0000   0.0000
     0.0000   0.0000   0.0000   0.0000   0.0000   0.0000   0.0000   0.0000
     0.0000   0.0000   0.0000   0.0000

          k = 0.2083 0.4090 0.0000 (  2721 PWs)   bands (ev):

   -19.4992 -11.4340  -9.4643  -5.7094   2.2166   5.5846   6.8447   7.1276
     8.3348   8.7283   9.4093  10.5103  10.8247  12.3098  12.4586  15.2684
    15.3885  16.0240  16.4429  16.4620

     occupation numbers 
     1.0000   1.0000   1.0000   1.0000   0.0000   0.0000   0.0000   0.0000
     0.0000   0.0000   0.0000   0.0000   0.0000   0.0000   0.0000   0.0000
     0.0000   0.0000   0.0000   0.0000

          k = 0.2083 0.4330 0.0000 (  2722 PWs)   bands (ev):

   -19.3194 -11.6957  -9.6472  -5.4225   1.8863   6.0292   7.2581   7.6093
     8.7213   9.0418   9.6087  10.5992  11.1805  12.4727  12.8212  14.7585
    15.3592  15.6866  16.0459  16.3307

     occupation numbers 
     1.0000   1.0000   1.0000   1.0000   0.0000   0.0000   0.0000   0.0000
     0.0000   0.0000   0.0000   0.0000   0.0000   0.0000   0.0000   0.0000
     0.0000   0.0000   0.0000   0.0000

          k = 0.2083 0.4571 0.0000 (  2720 PWs)   bands (ev):

   -19.1505 -11.9344  -9.8021  -5.1454   1.5646   6.4885   7.6695   8.1143
     9.0914   9.1990   9.9604  10.6823  11.4616  12.7559  13.1572  14.3199
    14.7664  14.9580  16.0010  16.2026

     occupation numbers 
     1.0000   1.0000   1.0000   1.0000   0.0000   0.0000   0.0000   0.0000
     0.0000   0.0000   0.0000   0.0000   0.0000   0.0000   0.0000   0.0000
     0.0000   0.0000   0.0000   0.0000

          k = 0.2083 0.4811 0.0000 (  2712 PWs)   bands (ev):

   -18.9981 -12.1469  -9.9220  -4.8858   1.2703   6.9542   8.0516   8.6326
     9.2758   9.4312  10.4002  10.8416  11.5693  13.0751  13.3933  13.9349
    14.1267  14.4749  15.4863  15.7920

     occupation numbers 
     1.0000   1.0000   1.0000   1.0000   0.0000   0.0000   0.0000   0.0000
     0.0000   0.0000   0.0000   0.0000   0.0000   0.0000   0.0000   0.0000
     0.0000   0.0000   0.0000   0.0000

          k = 0.2083 0.5052 0.0000 (  2708 PWs)   bands (ev):

   -18.8694 -12.3229 -10.0141  -4.6645   1.0121   7.4125   8.3617   9.0847
     9.4165   9.7609  10.7942  11.1175  11.5205  13.0968  13.1563  13.7350
    13.8191  14.4631  14.8956  15.3566

     occupation numbers 
     1.0000   1.0000   1.0000   1.0000   0.0000   0.0000   0.0000   0.0000
     0.0000   0.0000   0.0000   0.0000   0.0000   0.0000   0.0000   0.0000
     0.0000   0.0000   0.0000   0.0000

          k = 0.2083 0.5292 0.0000 (  2705 PWs)   bands (ev):

   -18.7727 -12.4577 -10.0786  -4.4860   0.8116   7.8321   8.5650   9.2442
     9.8716  10.1340  10.8104  11.4685  11.7167  12.5039  12.6171  13.7130
    13.8412  14.5568  14.5900  15.1995

     occupation numbers 
     1.0000   1.0000   1.0000   1.0000   0.0000   0.0000   0.0000   0.0000
     0.0000   0.0000   0.0000   0.0000   0.0000   0.0000   0.0000   0.0000
     0.0000   0.0000   0.0000   0.0000

          k = 0.2083 0.5533 0.0000 (  2702 PWs)   bands (ev):

   -18.7110 -12.5399 -10.1169  -4.3739   0.6832   8.1504   8.6665   9.3182
    10.3566  10.5581  10.6538  11.6458  11.7938  12.2267  12.3077  13.3672
    13.4498  14.7057  14.8715  15.3547

     occupation numbers 
     1.0000   1.0000   1.0000   1.0000   0.0000   0.0000   0.0000   0.0000
     0.0000   0.0000   0.0000   0.0000   0.0000   0.0000   0.0000   0.0000
     0.0000   0.0000   0.0000   0.0000

          k = 0.2083 0.5774 0.0000 (  2710 PWs)   bands (ev):

   -18.6907 -12.5739 -10.1314  -4.3367   0.6376   8.2729   8.6956   9.3577
    10.3390  10.8475  11.1041  11.2058  11.4591  12.4236  12.5934  13.0075
    13.1646  14.7877  15.1389  15.5166

     occupation numbers 
     1.0000   1.0000   1.0000   1.0000   0.0000   0.0000   0.0000   0.0000
     0.0000   0.0000   0.0000   0.0000   0.0000   0.0000   0.0000   0.0000
     0.0000   0.0000   0.0000   0.0000

          k = 0.2292 0.3969 0.0000 (  2723 PWs)   bands (ev):

   -19.5030 -11.3973  -9.5067  -5.7152   2.2384   5.5767   6.8303   7.1151
     8.3193   8.7595   9.5290  10.4878  10.6893  12.2906  12.4327  15.4045
    15.4326  16.0235  16.5752  16.7170

     occupation numbers 
     1.0000   1.0000   1.0000   1.0000   0.0000   0.0000   0.0000   0.0000
     0.0000   0.0000   0.0000   0.0000   0.0000   0.0000   0.0000   0.0000
     0.0000   0.0000   0.0000   0.0000

          k = 0.2292 0.4210 0.0000 (  2723 PWs)   bands (ev):

   -19.3253 -11.6202  -9.7304  -5.4374   1.9261   6.0163   7.2270   7.5854
     8.6874   9.1778   9.7226  10.5507  10.9826  12.4440  12.7970  15.0143
    15.6030  16.0364  16.2380  16.3739

     occupation numbers 
     1.0000   1.0000   1.0000   1.0000   0.0000   0.0000   0.0000   0.0000
     0.0000   0.0000   0.0000   0.0000   0.0000   0.0000   0.0000   0.0000
     0.0000   0.0000   0.0000   0.0000

          k = 0.2292 0.4450 0.0000 (  2718 PWs)   bands (ev):

   -19.1556 -11.8313  -9.9243  -5.1592   1.6236   6.4736   7.6181   8.0812
     9.0351   9.5026   9.9479  10.6146  11.3032  12.7285  13.1747  14.5421
    15.2480  15.4482  16.0125  16.1359

     occupation numbers 
     1.0000   1.0000   1.0000   1.0000   0.0000   0.0000   0.0000   0.0000
     0.0000   0.0000   0.0000   0.0000   0.0000   0.0000   0.0000   0.0000
     0.0000   0.0000   0.0000   0.0000

          k = 0.2292 0.4691 0.0000 (  2712 PWs)   bands (ev):

   -19.0000 -12.0238 -10.0818  -4.8943   1.3365   6.9422   7.9725   8.5998
     9.3512   9.6364  10.3308  10.7694  11.5624  13.0819  13.4956  14.1774
    14.5998  14.7512  15.7264  15.8805

     occupation numbers 
     1.0000   1.0000   1.0000   1.0000   0.0000   0.0000   0.0000   0.0000
     0.0000   0.0000   0.0000   0.0000   0.0000   0.0000   0.0000   0.0000
     0.0000   0.0000   0.0000   0.0000

          k = 0.2292 0.4932 0.0000 (  2704 PWs)   bands (ev):

   -18.8638 -12.1911 -10.2070  -4.6580   1.0802   7.4175   8.2455   9.1294
     9.6675   9.6866  10.7600  11.0549  11.6829  13.3621  13.5172  13.9571
    14.0463  14.3988  15.3125  15.3882

     occupation numbers 
     1.0000   1.0000   1.0000   1.0000   0.0000   0.0000   0.0000   0.0000
     0.0000   0.0000   0.0000   0.0000   0.0000   0.0000   0.0000   0.0000
     0.0000   0.0000   0.0000   0.0000

          k = 0.2292 0.5172 0.0000 (  2701 PWs)   bands (ev):

   -18.7549 -12.3308 -10.2988  -4.4562   0.8660   7.8789   8.4095   9.5333
     9.8512  10.0434  11.0186  11.4398  11.7805  13.0328  13.0583  13.8179
    14.0531  14.6428  14.7908  14.9956

     occupation numbers 
     1.0000   1.0000   1.0000   1.0000   0.0000   0.0000   0.0000   0.0000
     0.0000   0.0000   0.0000   0.0000   0.0000   0.0000   0.0000   0.0000
     0.0000   0.0000   0.0000   0.0000

          k = 0.2292 0.5413 0.0000 (  2697 PWs)   bands (ev):

   -18.6789 -12.4233 -10.3600  -4.3154   0.7113   8.2926   8.4842   9.5823
    10.3550  10.4912  10.9327  11.8115  12.1187  12.4051  12.5593  13.6870
    13.8534  14.6803  14.8216  15.0137

     occupation numbers 
     1.0000   1.0000   1.0000   1.0000   0.0000   0.0000   0.0000   0.0000
     0.0000   0.0000   0.0000   0.0000   0.0000   0.0000   0.0000   0.0000
     0.0000   0.0000   0.0000   0.0000

          k = 0.2292 0.5653 0.0000 (  2703 PWs)   bands (ev):

   -18.6389 -12.4743 -10.3923  -4.2470   0.6286   8.5094   8.5686   9.5579
    10.6429  10.9419  11.0787  11.6922  11.7203  12.5570  12.6416  13.3263
    13.4023  14.6619  15.1939  15.2310

     occupation numbers 
     1.0000   1.0000   1.0000   1.0000   0.0000   0.0000   0.0000   0.0000
     0.0000   0.0000   0.0000   0.0000   0.0000   0.0000   0.0000   0.0000
     0.0000   0.0000   0.0000   0.0000

          k = 0.2500 0.4330 0.0000 (  2713 PWs)   bands (ev):

   -19.1572 -11.7871  -9.9654  -5.1673   1.6413   6.4686   7.6004   8.0697
     9.0159   9.6176   9.9669  10.5914  11.2166  12.7183  13.1750  14.6728
    15.5391  15.6358  16.0539  16.1208

     occupation numbers 
     1.0000   1.0000   1.0000   1.0000   0.0000   0.0000   0.0000   0.0000
     0.0000   0.0000   0.0000   0.0000   0.0000   0.0000   0.0000   0.0000
     0.0000   0.0000   0.0000   0.0000

          k = 0.2500 0.4571 0.0000 (  2720 PWs)   bands (ev):

   -19.0016 -11.9544 -10.1767  -4.9068   1.3696   6.9337   7.9310   8.5787
     9.3100   9.9070  10.2618  10.7317  11.4953  13.0754  13.5549  14.2874
    15.0590  15.1669  15.5870  15.8270

     occupation numbers 
     1.0000   1.0000   1.0000   1.0000   0.0000   0.0000   0.0000   0.0000
     0.0000   0.0000   0.0000   0.0000   0.0000   0.0000   0.0000   0.0000
     0.0000   0.0000   0.0000   0.0000

          k = 0.2500 0.4811 0.0000 (  2712 PWs)   bands (ev):

   -18.8614 -12.0959 -10.3465  -4.6614   1.1212   7.4113   8.1710   9.1097
     9.6097   9.9912  10.6950  11.0131  11.7482  13.4479  13.7105  14.1643
    14.4525  14.5347  15.2566  15.5448

     occupation numbers 
     1.0000   1.0000   1.0000   1.0000   0.0000   0.0000   0.0000   0.0000
     0.0000   0.0000   0.0000   0.0000   0.0000   0.0000   0.0000   0.0000
     0.0000   0.0000   0.0000   0.0000

          k = 0.2500 0.5052 0.0000 (  2704 PWs)   bands (ev):

   -18.7437 -12.2151 -10.4777  -4.4464   0.9050   7.8893   8.2968   9.6390
     9.9793  10.0228  11.0858  11.4054  11.9122  13.4697  13.4995  13.9444
    14.1578  14.5084  14.9907  15.1035

     occupation numbers 
     1.0000   1.0000   1.0000   1.0000   0.0000   0.0000   0.0000   0.0000
     0.0000   0.0000   0.0000   0.0000   0.0000   0.0000   0.0000   0.0000
     0.0000   0.0000   0.0000   0.0000

          k = 0.2500 0.5292 0.0000 (  2699 PWs)   bands (ev):

   -18.6560 -12.3110 -10.5657  -4.2807   0.7364   8.3386   8.3439   9.8817
    10.3198  10.4308  11.2128  11.8438  12.1575  12.9329  12.9862  13.8027
    14.2340  14.5747  14.7991  14.9268

     occupation numbers 
     1.0000   1.0000   1.0000   1.0000   0.0000   0.0000   0.0000   0.0000
     0.0000   0.0000   0.0000   0.0000   0.0000   0.0000   0.0000   0.0000
     0.0000   0.0000   0.0000   0.0000

          k = 0.2500 0.5533 0.0000 (  2694 PWs)   bands (ev):

   -18.5999 -12.3682 -10.6210  -4.1734   0.6280   8.3449   8.7269   9.8254
    10.8299  10.9264  11.1702  12.0694  12.2306  12.6388  12.6609  13.6720
    13.7979  14.3653  15.0646  15.1147

     occupation numbers 
     1.0000   1.0000   1.0000   1.0000   0.0000   0.0000   0.0000   0.0000
     0.0000   0.0000   0.0000   0.0000   0.0000   0.0000   0.0000   0.0000
     0.0000   0.0000   0.0000   0.0000

          k = 0.2500 0.5774 0.0000 (  2696 PWs)   bands (ev):

   -18.5815 -12.3907 -10.6377  -4.1390   0.5899   8.3439   8.8984   9.7686
    10.9347  11.2731  11.5515  11.6693  11.8239  12.8494  12.9473  13.4217
    13.4624  14.3379  15.1658  15.2412

     occupation numbers 
     1.0000   1.0000   1.0000   1.0000   0.0000   0.0000   0.0000   0.0000
     0.0000   0.0000   0.0000   0.0000   0.0000   0.0000   0.0000   0.0000
     0.0000   0.0000   0.0000   0.0000

          k = 0.2708 0.4691 0.0000 (  2717 PWs)   bands (ev):

   -18.8607 -12.0622 -10.4008  -4.6611   1.1349   7.4075   8.1456   9.1003
     9.5902  10.1311  10.6510  10.9986  11.7525  13.4630  13.8186  14.1133
    14.7581  14.8389  15.1798  15.3496

     occupation numbers 
     1.0000   1.0000   1.0000   1.0000   0.0000   0.0000   0.0000   0.0000
     0.0000   0.0000   0.0000   0.0000   0.0000   0.0000   0.0000   0.0000
     0.0000   0.0000   0.0000   0.0000

          k = 0.2708 0.4932 0.0000 (  2711 PWs)   bands (ev):

   -18.7390 -12.1520 -10.5828  -4.4370   0.9266   7.8865   8.2381   9.6381
     9.9465  10.2131  11.0788  11.3852  12.0011  13.6298  13.7743  14.2685
    14.3344  14.4522  14.8503  15.0546

     occupation numbers 
     1.0000   1.0000   1.0000   1.0000   0.0000   0.0000   0.0000   0.0000
     0.0000   0.0000   0.0000   0.0000   0.0000   0.0000   0.0000   0.0000
     0.0000   0.0000   0.0000   0.0000

          k = 0.2708 0.5172 0.0000 (  2706 PWs)   bands (ev):

   -18.6426 -12.2222 -10.7205  -4.2587   0.7545   8.2463   8.3570  10.0809
    10.3377  10.3913  11.3779  11.8380  12.2244  13.4096  13.4692  13.8001
    14.3687  14.4488  14.8233  14.9146

     occupation numbers 
     1.0000   1.0000   1.0000   1.0000   0.0000   0.0000   0.0000   0.0000
     0.0000   0.0000   0.0000   0.0000   0.0000   0.0000   0.0000   0.0000
     0.0000   0.0000   0.0000   0.0000

          k = 0.2708 0.5413 0.0000 (  2706 PWs)   bands (ev):

   -18.5759 -12.2768 -10.8133  -4.1298   0.6311   8.2248   8.7834  10.0981
    10.8410  10.8944  11.4036  12.2645  12.5495  12.8811  12.9512  13.7715
    14.1958  14.2029  14.7696  14.8860

     occupation numbers 
     1.0000   1.0000   1.0000   1.0000   0.0000   0.0000   0.0000   0.0000
     0.0000   0.0000   0.0000   0.0000   0.0000   0.0000   0.0000   0.0000
     0.0000   0.0000   0.0000   0.0000

          k = 0.2708 0.5653 0.0000 (  2699 PWs)   bands (ev):

   -18.5407 -12.3024 -10.8559  -4.0589   0.5653   8.2069   9.0846  10.0216
    11.1793  11.3907  11.5729  12.1561  12.1760  12.9896  13.0382  13.6990
    13.7355  14.0026  14.8027  14.8182

     occupation numbers 
     1.0000   1.0000   1.0000   1.0000   0.0000   0.0000   0.0000   0.0000
     0.0000   0.0000   0.0000   0.0000   0.0000   0.0000   0.0000   0.0000
     0.0000   0.0000   0.0000   0.0000

          k = 0.2917 0.5052 0.0000 (  2711 PWs)   bands (ev):

   -18.6385 -12.1930 -10.7776  -4.2488   0.7625   8.2145   8.3576  10.1278
    10.3776  10.3778  11.4244  11.8334  12.2649  13.5158  13.7958  14.0233
    14.2331  14.3281  14.6694  14.7954

     occupation numbers 
     1.0000   1.0000   1.0000   1.0000   0.0000   0.0000   0.0000   0.0000
     0.0000   0.0000   0.0000   0.0000   0.0000   0.0000   0.0000   0.0000
     0.0000   0.0000   0.0000   0.0000

          k = 0.2917 0.5292 0.0000 (  2700 PWs)   bands (ev):

   -18.5618 -12.2099 -10.9183  -4.1049   0.6341   8.1616   8.8042  10.2727
    10.8360  10.8748  11.5604  12.3079  12.5725  13.3756  13.3936  13.6661
    14.0836  14.1099  14.5117  14.8066

     occupation numbers 
     1.0000   1.0000   1.0000   1.0000   0.0000   0.0000   0.0000   0.0000
     0.0000   0.0000   0.0000   0.0000   0.0000   0.0000   0.0000   0.0000
     0.0000   0.0000   0.0000   0.0000

          k = 0.2917 0.5533 0.0000 (  2701 PWs)   bands (ev):

   -18.5150 -12.2265 -11.0106  -4.0101   0.5531   8.1179   9.1615  10.2646
    11.3042  11.4006  11.5888  12.5599  12.7336  13.0511  13.0673  13.7289
    13.9341  13.9604  14.2967  14.5026

     occupation numbers 
     1.0000   1.0000   1.0000   1.0000   0.0000   0.0000   0.0000   0.0000
     0.0000   0.0000   0.0000   0.0000   0.0000   0.0000   0.0000   0.0000
     0.0000   0.0000   0.0000   0.0000

          k = 0.2917 0.5774 0.0000 (  2693 PWs)   bands (ev):

   -18.4983 -12.2273 -11.0391  -3.9747   0.5250   8.1016   9.3171  10.2467
    11.3192  11.7746  12.0752  12.1726  12.2798  13.3094  13.3461  13.6381
    13.6932  13.9098  14.2163  14.3712

     occupation numbers 
     1.0000   1.0000   1.0000   1.0000   0.0000   0.0000   0.0000   0.0000
     0.0000   0.0000   0.0000   0.0000   0.0000   0.0000   0.0000   0.0000
     0.0000   0.0000   0.0000   0.0000

          k = 0.3125 0.5413 0.0000 (  2707 PWs)   bands (ev):

   -18.5072 -12.1985 -11.0706  -3.9953   0.5486   8.0871   9.1791  10.3673
    11.3341  11.3984  11.5998  12.7329  12.9489  13.1955  13.3192  13.4503
    13.7417  13.8424  14.2456  14.6772

     occupation numbers 
     1.0000   1.0000   1.0000   1.0000   0.0000   0.0000   0.0000   0.0000
     0.0000   0.0000   0.0000   0.0000   0.0000   0.0000   0.0000   0.0000
     0.0000   0.0000   0.0000   0.0000

          k = 0.3125 0.5653 0.0000 (  2705 PWs)   bands (ev):

   -18.4782 -12.1843 -11.1477  -3.9400   0.5032   8.0453   9.4093  10.4465
    11.3148  11.9068  12.0900  12.6197  12.7165  13.2274  13.2694  13.4921
    13.6915  13.9205  14.0359  14.3278

     occupation numbers 
     1.0000   1.0000   1.0000   1.0000   0.0000   0.0000   0.0000   0.0000
     0.0000   0.0000   0.0000   0.0000   0.0000   0.0000   0.0000   0.0000
     0.0000   0.0000   0.0000   0.0000

          k = 0.3333 0.5774 0.0000 (  2709 PWs)   bands (ev):

   -18.4664 -12.1698 -11.2001  -3.9154   0.4863   8.0199   9.4904  10.5613
    11.2264  12.2211  12.5880  12.6343  12.6927  12.7851  13.0535  13.6701
    13.8789  13.9158  13.9998  14.1839

     occupation numbers 
     1.0000   1.0000   1.0000   1.0000   0.0000   0.0000   0.0000   0.0000
     0.0000   0.0000   0.0000   0.0000   0.0000   0.0000   0.0000   0.0000
     0.0000   0.0000   0.0000   0.0000

     highest occupied, lowest unoccupied level (ev):    -3.9154    0.4863

     Writing output data file run_output/hBN_2D.save/

     init_run     :      0.06s CPU      0.09s WALL (       1 calls)
     electrons    :      4.94s CPU      5.08s WALL (       1 calls)

     Called by init_run:
     wfcinit      :      0.00s CPU      0.01s WALL (       1 calls)
     wfcinit:atom :      0.00s CPU      0.00s WALL (      31 calls)
     wfcinit:wfcr :      0.29s CPU      0.29s WALL (      31 calls)
     potinit      :      0.01s CPU      0.02s WALL (       1 calls)
     hinit0       :      0.01s CPU      0.02s WALL (       1 calls)

     Called by electrons:
     c_bands      :      4.94s CPU      5.04s WALL (       1 calls)
     v_of_rho     :      0.00s CPU      0.00s WALL (       1 calls)
     v_h          :      0.00s CPU      0.00s WALL (       1 calls)
     v_xc         :      0.00s CPU      0.00s WALL (       1 calls)

     Called by c_bands:
     init_us_2    :      0.00s CPU      0.00s WALL (      31 calls)
     cegterg      :      3.21s CPU      3.30s WALL (      31 calls)

     Called by sum_band:

     Called by *egterg:
     cdiaghg      :      0.71s CPU      0.73s WALL (     474 calls)
     cegterg:over :      0.16s CPU      0.16s WALL (     443 calls)
     cegterg:upda :      0.08s CPU      0.08s WALL (     443 calls)
     cegterg:last :      0.05s CPU      0.06s WALL (      93 calls)
     cdiaghg:chol :      0.06s CPU      0.06s WALL (     474 calls)
     cdiaghg:inve :      0.01s CPU      0.01s WALL (     474 calls)
     cdiaghg:para :      0.08s CPU      0.08s WALL (     948 calls)
     h_psi        :      2.43s CPU      2.49s WALL (     505 calls)
     g_psi        :      0.03s CPU      0.03s WALL (     443 calls)

     Called by h_psi:
     h_psi:calbec :      0.02s CPU      0.02s WALL (     505 calls)
     vloc_psi     :      2.39s CPU      2.44s WALL (     505 calls)
     add_vuspsi   :      0.01s CPU      0.01s WALL (     505 calls)

     General routines
     calbec       :      0.02s CPU      0.02s WALL (     505 calls)
     fft          :      0.00s CPU      0.01s WALL (       3 calls)
     fftw         :      1.99s CPU      2.03s WALL (   11468 calls)
     davcio       :      0.00s CPU      0.01s WALL (      62 calls)

     Parallel routines
     fft_scatt_xy :      0.34s CPU      0.34s WALL (   11471 calls)
     fft_scatt_yz :      0.44s CPU      0.45s WALL (   11471 calls)

     PWSCF        :      5.27s CPU      8.06s WALL


   This run was terminated on:  15:59:15  13Oct2021            

=------------------------------------------------------------------------------=
   JOB DONE.
=------------------------------------------------------------------------------=
