
     Program PWSCF v.6.7MaX starts on  6Oct2021 at 10:33:29 

     This program is part of the open-source Quantum ESPRESSO suite
     for quantum simulation of materials; please cite
         "P. Giannozzi et al., J. Phys.:Condens. Matter 21 395502 (2009);
         "P. Giannozzi et al., J. Phys.:Condens. Matter 29 465901 (2017);
          URL http://www.quantum-espresso.org", 
     in publications or presentations arising from this work. More details at
     http://www.quantum-espresso.org/quote

     Parallel version (MPI), running on    84 processors

     MPI processes distributed on     3 nodes
     K-points division:     npool     =       7
     R & G space division:  proc/nbgrp/npool/nimage =      12
     Waiting for input...
     Reading input from standard input

     Current dimensions of program PWSCF are:
     Max number of different atomic species (ntypx) = 10
     Max number of k-points (npk) =  40000
     Max angular momentum in pseudopotentials (lmaxx) =  3

     Atomic positions and unit cell read from directory:
     run_output/AlAs.save/
     Atomic positions from file used, from input discarded


     Subspace diagonalization in iterative solution of the eigenvalue problem:
     one sub-group per band group will be used
     scalapack distributed-memory algorithm (size of sub-group:  3*  3 procs)


     Parallelization info
     --------------------
     sticks:   dense  smooth     PW     G-vecs:    dense   smooth      PW
     Min          53      53     16                  867      867     156
     Max          54      54     17                  869      869     159
     Sum         637     637    199                10417    10417    1893



     bravais-lattice index     =            2
     lattice parameter (alat)  =      10.6959  a.u.
     unit-cell volume          =     305.9088 (a.u.)^3
     number of atoms/cell      =            2
     number of atomic types    =            2
     number of electrons       =         8.00
     number of Kohn-Sham states=           15
     kinetic-energy cutoff     =      40.0000  Ry
     charge density cutoff     =     160.0000  Ry
     Exchange-correlation= SLA  PZ   NOGX NOGC
                           (   1   1   0   0   0   0   0)

     celldm(1)=  10.695900  celldm(2)=   0.000000  celldm(3)=   0.000000
     celldm(4)=   0.000000  celldm(5)=   0.000000  celldm(6)=   0.000000

     crystal axes: (cart. coord. in units of alat)
               a(1) = (  -0.500000   0.000000   0.500000 )  
               a(2) = (   0.000000   0.500000   0.500000 )  
               a(3) = (  -0.500000   0.500000   0.000000 )  

     reciprocal axes: (cart. coord. in units 2 pi/alat)
               b(1) = ( -1.000000 -1.000000  1.000000 )  
               b(2) = (  1.000000  1.000000  1.000000 )  
               b(3) = ( -1.000000  1.000000 -1.000000 )  


     PseudoPot. # 1 for Al read from file:
     PPs/Al.pz-vbc.UPF
     MD5 check sum: f06ceae8da0fe5c02c98e3688433298c
     Pseudo is Norm-conserving, Zval =  3.0
     Generated by new atomic code, or converted to UPF format
     Using radial grid of  171 points,  2 beta functions with: 
                l(1) =   0
                l(2) =   1

     PseudoPot. # 2 for As read from file:
     PPs/As.pz-bhs.UPF
     MD5 check sum: 2c53d8691f3db84e0fbdf898b12bc293
     Pseudo is Norm-conserving, Zval =  5.0
     Generated by new atomic code, or converted to UPF format
     Using radial grid of  525 points,  2 beta functions with: 
                l(1) =   0
                l(2) =   1

     atomic species   valence    mass     pseudopotential
        Al             3.00     1.00000     Al( 1.00)
        As             5.00     1.00000     As( 1.00)

     24 Sym. Ops. (no inversion) found


                                    s                        frac. trans.

      isym =  1     identity                                     

 cryst.   s( 1) = (     1          0          0      )
                  (     0          1          0      )
                  (     0          0          1      )

 cart.    s( 1) = (  1.0000000  0.0000000  0.0000000 )
                  (  0.0000000  1.0000000  0.0000000 )
                  (  0.0000000  0.0000000  1.0000000 )


      isym =  2     180 deg rotation - cart. axis [0,0,1]        

 cryst.   s( 2) = (     0          1         -1      )
                  (     1          0         -1      )
                  (     0          0         -1      )

 cart.    s( 2) = ( -1.0000000  0.0000000  0.0000000 )
                  (  0.0000000 -1.0000000  0.0000000 )
                  (  0.0000000  0.0000000  1.0000000 )


      isym =  3     180 deg rotation - cart. axis [0,1,0]        

 cryst.   s( 3) = (    -1          0          0      )
                  (    -1          0          1      )
                  (    -1          1          0      )

 cart.    s( 3) = ( -1.0000000  0.0000000  0.0000000 )
                  (  0.0000000  1.0000000  0.0000000 )
                  (  0.0000000  0.0000000 -1.0000000 )


      isym =  4     180 deg rotation - cart. axis [1,0,0]        

 cryst.   s( 4) = (     0         -1          1      )
                  (     0         -1          0      )
                  (     1         -1          0      )

 cart.    s( 4) = (  1.0000000  0.0000000  0.0000000 )
                  (  0.0000000 -1.0000000  0.0000000 )
                  (  0.0000000  0.0000000 -1.0000000 )


      isym =  5     120 deg rotation - cart. axis [-1,-1,-1]     

 cryst.   s( 5) = (    -1          0          1      )
                  (    -1          1          0      )
                  (    -1          0          0      )

 cart.    s( 5) = (  0.0000000  1.0000000  0.0000000 )
                  (  0.0000000  0.0000000  1.0000000 )
                  (  1.0000000  0.0000000  0.0000000 )


      isym =  6     120 deg rotation - cart. axis [-1,1,1]       

 cryst.   s( 6) = (     0          1          0      )
                  (     0          0          1      )
                  (     1          0          0      )

 cart.    s( 6) = (  0.0000000 -1.0000000  0.0000000 )
                  (  0.0000000  0.0000000  1.0000000 )
                  ( -1.0000000  0.0000000  0.0000000 )


      isym =  7     120 deg rotation - cart. axis [1,1,-1]       

 cryst.   s( 7) = (     1          0         -1      )
                  (     0          0         -1      )
                  (     0          1         -1      )

 cart.    s( 7) = (  0.0000000  1.0000000  0.0000000 )
                  (  0.0000000  0.0000000 -1.0000000 )
                  ( -1.0000000  0.0000000  0.0000000 )


      isym =  8     120 deg rotation - cart. axis [1,-1,1]       

 cryst.   s( 8) = (     0         -1          0      )
                  (     1         -1          0      )
                  (     0         -1          1      )

 cart.    s( 8) = (  0.0000000 -1.0000000  0.0000000 )
                  (  0.0000000  0.0000000 -1.0000000 )
                  (  1.0000000  0.0000000  0.0000000 )


      isym =  9     120 deg rotation - cart. axis [1,1,1]        

 cryst.   s( 9) = (     0          0         -1      )
                  (     0          1         -1      )
                  (     1          0         -1      )

 cart.    s( 9) = (  0.0000000  0.0000000  1.0000000 )
                  (  1.0000000  0.0000000  0.0000000 )
                  (  0.0000000  1.0000000  0.0000000 )


      isym = 10     120 deg rotation - cart. axis [-1,1,-1]      

 cryst.   s(10) = (    -1          1          0      )
                  (    -1          0          0      )
                  (    -1          0          1      )

 cart.    s(10) = (  0.0000000  0.0000000  1.0000000 )
                  ( -1.0000000  0.0000000  0.0000000 )
                  (  0.0000000 -1.0000000  0.0000000 )


      isym = 11     120 deg rotation - cart. axis [1,-1,-1]      

 cryst.   s(11) = (     0          0          1      )
                  (     1          0          0      )
                  (     0          1          0      )

 cart.    s(11) = (  0.0000000  0.0000000 -1.0000000 )
                  ( -1.0000000  0.0000000  0.0000000 )
                  (  0.0000000  1.0000000  0.0000000 )


      isym = 12     120 deg rotation - cart. axis [-1,-1,1]      

 cryst.   s(12) = (     1         -1          0      )
                  (     0         -1          1      )
                  (     0         -1          0      )

 cart.    s(12) = (  0.0000000  0.0000000 -1.0000000 )
                  (  1.0000000  0.0000000  0.0000000 )
                  (  0.0000000 -1.0000000  0.0000000 )


      isym = 13     inv. 180 deg rotation - cart. axis [1,1,0]   

 cryst.   s(13) = (     0          1          0      )
                  (     1          0          0      )
                  (     0          0          1      )

 cart.    s(13) = (  0.0000000 -1.0000000  0.0000000 )
                  ( -1.0000000  0.0000000  0.0000000 )
                  (  0.0000000  0.0000000  1.0000000 )


      isym = 14     inv. 180 deg rotation - cart. axis [1,-1,0]  

 cryst.   s(14) = (     1          0         -1      )
                  (     0          1         -1      )
                  (     0          0         -1      )

 cart.    s(14) = (  0.0000000  1.0000000  0.0000000 )
                  (  1.0000000  0.0000000  0.0000000 )
                  (  0.0000000  0.0000000  1.0000000 )


      isym = 15     inv.  90 deg rotation - cart. axis [0,0,-1]  

 cryst.   s(15) = (     0         -1          0      )
                  (     0         -1          1      )
                  (     1         -1          0      )

 cart.    s(15) = (  0.0000000 -1.0000000  0.0000000 )
                  (  1.0000000  0.0000000  0.0000000 )
                  (  0.0000000  0.0000000 -1.0000000 )


      isym = 16     inv.  90 deg rotation - cart. axis [0,0,1]   

 cryst.   s(16) = (    -1          0          1      )
                  (    -1          0          0      )
                  (    -1          1          0      )

 cart.    s(16) = (  0.0000000  1.0000000  0.0000000 )
                  ( -1.0000000  0.0000000  0.0000000 )
                  (  0.0000000  0.0000000 -1.0000000 )


      isym = 17     inv. 180 deg rotation - cart. axis [1,0,1]   

 cryst.   s(17) = (     1          0          0      )
                  (     0          0          1      )
                  (     0          1          0      )

 cart.    s(17) = (  0.0000000  0.0000000 -1.0000000 )
                  (  0.0000000  1.0000000  0.0000000 )
                  ( -1.0000000  0.0000000  0.0000000 )


      isym = 18     inv. 180 deg rotation - cart. axis [-1,0,1]  

 cryst.   s(18) = (    -1          0          0      )
                  (    -1          1          0      )
                  (    -1          0          1      )

 cart.    s(18) = (  0.0000000  0.0000000  1.0000000 )
                  (  0.0000000  1.0000000  0.0000000 )
                  (  1.0000000  0.0000000  0.0000000 )


      isym = 19     inv.  90 deg rotation - cart. axis [0,1,0]   

 cryst.   s(19) = (     0         -1          1      )
                  (     1         -1          0      )
                  (     0         -1          0      )

 cart.    s(19) = (  0.0000000  0.0000000 -1.0000000 )
                  (  0.0000000 -1.0000000  0.0000000 )
                  (  1.0000000  0.0000000  0.0000000 )


      isym = 20     inv.  90 deg rotation - cart. axis [0,-1,0]  

 cryst.   s(20) = (     0          1         -1      )
                  (     0          0         -1      )
                  (     1          0         -1      )

 cart.    s(20) = (  0.0000000  0.0000000  1.0000000 )
                  (  0.0000000 -1.0000000  0.0000000 )
                  ( -1.0000000  0.0000000  0.0000000 )


      isym = 21     inv. 180 deg rotation - cart. axis [0,1,1]   

 cryst.   s(21) = (     1         -1          0      )
                  (     0         -1          0      )
                  (     0         -1          1      )

 cart.    s(21) = (  1.0000000  0.0000000  0.0000000 )
                  (  0.0000000  0.0000000 -1.0000000 )
                  (  0.0000000 -1.0000000  0.0000000 )


      isym = 22     inv. 180 deg rotation - cart. axis [0,1,-1]  

 cryst.   s(22) = (     0          0          1      )
                  (     0          1          0      )
                  (     1          0          0      )

 cart.    s(22) = (  1.0000000  0.0000000  0.0000000 )
                  (  0.0000000  0.0000000  1.0000000 )
                  (  0.0000000  1.0000000  0.0000000 )


      isym = 23     inv.  90 deg rotation - cart. axis [-1,0,0]  

 cryst.   s(23) = (     0          0         -1      )
                  (     1          0         -1      )
                  (     0          1         -1      )

 cart.    s(23) = ( -1.0000000  0.0000000  0.0000000 )
                  (  0.0000000  0.0000000 -1.0000000 )
                  (  0.0000000  1.0000000  0.0000000 )


      isym = 24     inv.  90 deg rotation - cart. axis [1,0,0]   

 cryst.   s(24) = (    -1          1          0      )
                  (    -1          0          1      )
                  (    -1          0          0      )

 cart.    s(24) = ( -1.0000000  0.0000000  0.0000000 )
                  (  0.0000000  0.0000000  1.0000000 )
                  (  0.0000000 -1.0000000  0.0000000 )


     point group T_d (-43m) 
     there are  5 classes
     the character table:

       E     8C3   3C2   6S4   6s_d 
A_1    1.00  1.00  1.00  1.00  1.00
A_2    1.00  1.00  1.00 -1.00 -1.00
E      2.00 -1.00  2.00  0.00  0.00
T_1    3.00  0.00 -1.00  1.00 -1.00
T_2    3.00  0.00 -1.00 -1.00  1.00

     the symmetry operations in each class and the name of the first element:

     E        1
          identity                                               
     8C3      5    7    8    6   12    9   10   11
          120 deg rotation - cart. axis [-1,-1,-1]               
     3C2      2    3    4
          180 deg rotation - cart. axis [0,0,1]                  
     6S4     15   16   20   19   23   24
          inv.  90 deg rotation - cart. axis [0,0,-1]            
     6s_d    13   14   17   18   21   22
          inv. 180 deg rotation - cart. axis [1,1,0]             

   Cartesian axes

     site n.     atom                  positions (alat units)
         1           Al  tau(   1) = (   0.0000000   0.0000000   0.0000000  )
         2           As  tau(   2) = (  -0.2500000   0.2500000   0.2500000  )

   Crystallographic axes

     site n.     atom                  positions (cryst. coord.)
         1           Al  tau(   1) = (  0.0000000  0.0000000  0.0000000  )
         2           As  tau(   2) = (  0.2500000  0.2500000  0.2500000  )

     number of k points=   752
                       cart. coord. in units 2pi/alat
        k(    1) = (   0.0000000   0.0000000   0.0000000), wk =   0.0000741
        k(    2) = (  -0.0333333   0.0333333  -0.0333333), wk =   0.0005926
        k(    3) = (  -0.0666667   0.0666667  -0.0666667), wk =   0.0005926
        k(    4) = (  -0.1000000   0.1000000  -0.1000000), wk =   0.0005926
        k(    5) = (  -0.1333333   0.1333333  -0.1333333), wk =   0.0005926
        k(    6) = (  -0.1666667   0.1666667  -0.1666667), wk =   0.0005926
        k(    7) = (  -0.2000000   0.2000000  -0.2000000), wk =   0.0005926
        k(    8) = (  -0.2333333   0.2333333  -0.2333333), wk =   0.0005926
        k(    9) = (  -0.2666667   0.2666667  -0.2666667), wk =   0.0005926
        k(   10) = (  -0.3000000   0.3000000  -0.3000000), wk =   0.0005926
        k(   11) = (  -0.3333333   0.3333333  -0.3333333), wk =   0.0005926
        k(   12) = (  -0.3666667   0.3666667  -0.3666667), wk =   0.0005926
        k(   13) = (  -0.4000000   0.4000000  -0.4000000), wk =   0.0005926
        k(   14) = (  -0.4333333   0.4333333  -0.4333333), wk =   0.0005926
        k(   15) = (  -0.4666667   0.4666667  -0.4666667), wk =   0.0005926
        k(   16) = (   0.5000000  -0.5000000   0.5000000), wk =   0.0002963
        k(   17) = (   0.0000000   0.0666667   0.0000000), wk =   0.0004444
        k(   18) = (  -0.0333333   0.1000000  -0.0333333), wk =   0.0017778
        k(   19) = (  -0.0666667   0.1333333  -0.0666667), wk =   0.0017778
        k(   20) = (  -0.1000000   0.1666667  -0.1000000), wk =   0.0017778
        k(   21) = (  -0.1333333   0.2000000  -0.1333333), wk =   0.0017778
        k(   22) = (  -0.1666667   0.2333333  -0.1666667), wk =   0.0017778
        k(   23) = (  -0.2000000   0.2666667  -0.2000000), wk =   0.0017778
        k(   24) = (  -0.2333333   0.3000000  -0.2333333), wk =   0.0017778
        k(   25) = (  -0.2666667   0.3333333  -0.2666667), wk =   0.0017778
        k(   26) = (  -0.3000000   0.3666667  -0.3000000), wk =   0.0017778
        k(   27) = (  -0.3333333   0.4000000  -0.3333333), wk =   0.0017778
        k(   28) = (  -0.3666667   0.4333333  -0.3666667), wk =   0.0017778
        k(   29) = (  -0.4000000   0.4666667  -0.4000000), wk =   0.0017778
        k(   30) = (  -0.4333333   0.5000000  -0.4333333), wk =   0.0017778
        k(   31) = (   0.5333333  -0.4666667   0.5333333), wk =   0.0017778
        k(   32) = (   0.5000000  -0.4333333   0.5000000), wk =   0.0017778
        k(   33) = (   0.4666667  -0.4000000   0.4666667), wk =   0.0017778
        k(   34) = (   0.4333333  -0.3666667   0.4333333), wk =   0.0017778
        k(   35) = (   0.4000000  -0.3333333   0.4000000), wk =   0.0017778
        k(   36) = (   0.3666667  -0.3000000   0.3666667), wk =   0.0017778
        k(   37) = (   0.3333333  -0.2666667   0.3333333), wk =   0.0017778
        k(   38) = (   0.3000000  -0.2333333   0.3000000), wk =   0.0017778
        k(   39) = (   0.2666667  -0.2000000   0.2666667), wk =   0.0017778
        k(   40) = (   0.2333333  -0.1666667   0.2333333), wk =   0.0017778
        k(   41) = (   0.2000000  -0.1333333   0.2000000), wk =   0.0017778
        k(   42) = (   0.1666667  -0.1000000   0.1666667), wk =   0.0017778
        k(   43) = (   0.1333333  -0.0666667   0.1333333), wk =   0.0017778
        k(   44) = (   0.1000000  -0.0333333   0.1000000), wk =   0.0017778
        k(   45) = (   0.0666667   0.0000000   0.0666667), wk =   0.0008889
        k(   46) = (   0.0000000   0.1333333   0.0000000), wk =   0.0004444
        k(   47) = (  -0.0333333   0.1666667  -0.0333333), wk =   0.0017778
        k(   48) = (  -0.0666667   0.2000000  -0.0666667), wk =   0.0017778
        k(   49) = (  -0.1000000   0.2333333  -0.1000000), wk =   0.0017778
        k(   50) = (  -0.1333333   0.2666667  -0.1333333), wk =   0.0017778
        k(   51) = (  -0.1666667   0.3000000  -0.1666667), wk =   0.0017778
        k(   52) = (  -0.2000000   0.3333333  -0.2000000), wk =   0.0017778
        k(   53) = (  -0.2333333   0.3666667  -0.2333333), wk =   0.0017778
        k(   54) = (  -0.2666667   0.4000000  -0.2666667), wk =   0.0017778
        k(   55) = (  -0.3000000   0.4333333  -0.3000000), wk =   0.0017778
        k(   56) = (  -0.3333333   0.4666667  -0.3333333), wk =   0.0017778
        k(   57) = (  -0.3666667   0.5000000  -0.3666667), wk =   0.0017778
        k(   58) = (  -0.4000000   0.5333333  -0.4000000), wk =   0.0017778
        k(   59) = (   0.5666667  -0.4333333   0.5666667), wk =   0.0017778
        k(   60) = (   0.5333333  -0.4000000   0.5333333), wk =   0.0017778
        k(   61) = (   0.5000000  -0.3666667   0.5000000), wk =   0.0017778
        k(   62) = (   0.4666667  -0.3333333   0.4666667), wk =   0.0017778
        k(   63) = (   0.4333333  -0.3000000   0.4333333), wk =   0.0017778
        k(   64) = (   0.4000000  -0.2666667   0.4000000), wk =   0.0017778
        k(   65) = (   0.3666667  -0.2333333   0.3666667), wk =   0.0017778
        k(   66) = (   0.3333333  -0.2000000   0.3333333), wk =   0.0017778
        k(   67) = (   0.3000000  -0.1666667   0.3000000), wk =   0.0017778
        k(   68) = (   0.2666667  -0.1333333   0.2666667), wk =   0.0017778
        k(   69) = (   0.2333333  -0.1000000   0.2333333), wk =   0.0017778
        k(   70) = (   0.2000000  -0.0666667   0.2000000), wk =   0.0017778
        k(   71) = (   0.1666667  -0.0333333   0.1666667), wk =   0.0017778
        k(   72) = (   0.1333333   0.0000000   0.1333333), wk =   0.0008889
        k(   73) = (   0.0000000   0.2000000   0.0000000), wk =   0.0004444
        k(   74) = (  -0.0333333   0.2333333  -0.0333333), wk =   0.0017778
        k(   75) = (  -0.0666667   0.2666667  -0.0666667), wk =   0.0017778
        k(   76) = (  -0.1000000   0.3000000  -0.1000000), wk =   0.0017778
        k(   77) = (  -0.1333333   0.3333333  -0.1333333), wk =   0.0017778
        k(   78) = (  -0.1666667   0.3666667  -0.1666667), wk =   0.0017778
        k(   79) = (  -0.2000000   0.4000000  -0.2000000), wk =   0.0017778
        k(   80) = (  -0.2333333   0.4333333  -0.2333333), wk =   0.0017778
        k(   81) = (  -0.2666667   0.4666667  -0.2666667), wk =   0.0017778
        k(   82) = (  -0.3000000   0.5000000  -0.3000000), wk =   0.0017778
        k(   83) = (  -0.3333333   0.5333333  -0.3333333), wk =   0.0017778
        k(   84) = (  -0.3666667   0.5666667  -0.3666667), wk =   0.0017778
        k(   85) = (   0.6000000  -0.4000000   0.6000000), wk =   0.0017778
        k(   86) = (   0.5666667  -0.3666667   0.5666667), wk =   0.0017778
        k(   87) = (   0.5333333  -0.3333333   0.5333333), wk =   0.0017778
        k(   88) = (   0.5000000  -0.3000000   0.5000000), wk =   0.0017778
        k(   89) = (   0.4666667  -0.2666667   0.4666667), wk =   0.0017778
        k(   90) = (   0.4333333  -0.2333333   0.4333333), wk =   0.0017778
        k(   91) = (   0.4000000  -0.2000000   0.4000000), wk =   0.0017778
        k(   92) = (   0.3666667  -0.1666667   0.3666667), wk =   0.0017778
        k(   93) = (   0.3333333  -0.1333333   0.3333333), wk =   0.0017778
        k(   94) = (   0.3000000  -0.1000000   0.3000000), wk =   0.0017778
        k(   95) = (   0.2666667  -0.0666667   0.2666667), wk =   0.0017778
        k(   96) = (   0.2333333  -0.0333333   0.2333333), wk =   0.0017778
        k(   97) = (   0.2000000   0.0000000   0.2000000), wk =   0.0008889
        k(   98) = (   0.0000000   0.2666667   0.0000000), wk =   0.0004444
        k(   99) = (  -0.0333333   0.3000000  -0.0333333), wk =   0.0017778
        k(  100) = (  -0.0666667   0.3333333  -0.0666667), wk =   0.0017778
        k(  101) = (  -0.1000000   0.3666667  -0.1000000), wk =   0.0017778
        k(  102) = (  -0.1333333   0.4000000  -0.1333333), wk =   0.0017778
        k(  103) = (  -0.1666667   0.4333333  -0.1666667), wk =   0.0017778
        k(  104) = (  -0.2000000   0.4666667  -0.2000000), wk =   0.0017778
        k(  105) = (  -0.2333333   0.5000000  -0.2333333), wk =   0.0017778
        k(  106) = (  -0.2666667   0.5333333  -0.2666667), wk =   0.0017778
        k(  107) = (  -0.3000000   0.5666667  -0.3000000), wk =   0.0017778
        k(  108) = (  -0.3333333   0.6000000  -0.3333333), wk =   0.0017778
        k(  109) = (   0.6333333  -0.3666667   0.6333333), wk =   0.0017778
        k(  110) = (   0.6000000  -0.3333333   0.6000000), wk =   0.0017778
        k(  111) = (   0.5666667  -0.3000000   0.5666667), wk =   0.0017778
        k(  112) = (   0.5333333  -0.2666667   0.5333333), wk =   0.0017778
        k(  113) = (   0.5000000  -0.2333333   0.5000000), wk =   0.0017778
        k(  114) = (   0.4666667  -0.2000000   0.4666667), wk =   0.0017778
        k(  115) = (   0.4333333  -0.1666667   0.4333333), wk =   0.0017778
        k(  116) = (   0.4000000  -0.1333333   0.4000000), wk =   0.0017778
        k(  117) = (   0.3666667  -0.1000000   0.3666667), wk =   0.0017778
        k(  118) = (   0.3333333  -0.0666667   0.3333333), wk =   0.0017778
        k(  119) = (   0.3000000  -0.0333333   0.3000000), wk =   0.0017778
        k(  120) = (   0.2666667   0.0000000   0.2666667), wk =   0.0008889
        k(  121) = (   0.0000000   0.3333333   0.0000000), wk =   0.0004444
        k(  122) = (  -0.0333333   0.3666667  -0.0333333), wk =   0.0017778
        k(  123) = (  -0.0666667   0.4000000  -0.0666667), wk =   0.0017778
        k(  124) = (  -0.1000000   0.4333333  -0.1000000), wk =   0.0017778
        k(  125) = (  -0.1333333   0.4666667  -0.1333333), wk =   0.0017778
        k(  126) = (  -0.1666667   0.5000000  -0.1666667), wk =   0.0017778
        k(  127) = (  -0.2000000   0.5333333  -0.2000000), wk =   0.0017778
        k(  128) = (  -0.2333333   0.5666667  -0.2333333), wk =   0.0017778
        k(  129) = (  -0.2666667   0.6000000  -0.2666667), wk =   0.0017778
        k(  130) = (  -0.3000000   0.6333333  -0.3000000), wk =   0.0017778
        k(  131) = (   0.6666667  -0.3333333   0.6666667), wk =   0.0017778
        k(  132) = (   0.6333333  -0.3000000   0.6333333), wk =   0.0017778
        k(  133) = (   0.6000000  -0.2666667   0.6000000), wk =   0.0017778
        k(  134) = (   0.5666667  -0.2333333   0.5666667), wk =   0.0017778
        k(  135) = (   0.5333333  -0.2000000   0.5333333), wk =   0.0017778
        k(  136) = (   0.5000000  -0.1666667   0.5000000), wk =   0.0017778
        k(  137) = (   0.4666667  -0.1333333   0.4666667), wk =   0.0017778
        k(  138) = (   0.4333333  -0.1000000   0.4333333), wk =   0.0017778
        k(  139) = (   0.4000000  -0.0666667   0.4000000), wk =   0.0017778
        k(  140) = (   0.3666667  -0.0333333   0.3666667), wk =   0.0017778
        k(  141) = (   0.3333333   0.0000000   0.3333333), wk =   0.0008889
        k(  142) = (   0.0000000   0.4000000   0.0000000), wk =   0.0004444
        k(  143) = (  -0.0333333   0.4333333  -0.0333333), wk =   0.0017778
        k(  144) = (  -0.0666667   0.4666667  -0.0666667), wk =   0.0017778
        k(  145) = (  -0.1000000   0.5000000  -0.1000000), wk =   0.0017778
        k(  146) = (  -0.1333333   0.5333333  -0.1333333), wk =   0.0017778
        k(  147) = (  -0.1666667   0.5666667  -0.1666667), wk =   0.0017778
        k(  148) = (  -0.2000000   0.6000000  -0.2000000), wk =   0.0017778
        k(  149) = (  -0.2333333   0.6333333  -0.2333333), wk =   0.0017778
        k(  150) = (  -0.2666667   0.6666667  -0.2666667), wk =   0.0017778
        k(  151) = (   0.7000000  -0.3000000   0.7000000), wk =   0.0017778
        k(  152) = (   0.6666667  -0.2666667   0.6666667), wk =   0.0017778
        k(  153) = (   0.6333333  -0.2333333   0.6333333), wk =   0.0017778
        k(  154) = (   0.6000000  -0.2000000   0.6000000), wk =   0.0017778
        k(  155) = (   0.5666667  -0.1666667   0.5666667), wk =   0.0017778
        k(  156) = (   0.5333333  -0.1333333   0.5333333), wk =   0.0017778
        k(  157) = (   0.5000000  -0.1000000   0.5000000), wk =   0.0017778
        k(  158) = (   0.4666667  -0.0666667   0.4666667), wk =   0.0017778
        k(  159) = (   0.4333333  -0.0333333   0.4333333), wk =   0.0017778
        k(  160) = (   0.4000000   0.0000000   0.4000000), wk =   0.0008889
        k(  161) = (   0.0000000   0.4666667   0.0000000), wk =   0.0004444
        k(  162) = (  -0.0333333   0.5000000  -0.0333333), wk =   0.0017778
        k(  163) = (  -0.0666667   0.5333333  -0.0666667), wk =   0.0017778
        k(  164) = (  -0.1000000   0.5666667  -0.1000000), wk =   0.0017778
        k(  165) = (  -0.1333333   0.6000000  -0.1333333), wk =   0.0017778
        k(  166) = (  -0.1666667   0.6333333  -0.1666667), wk =   0.0017778
        k(  167) = (  -0.2000000   0.6666667  -0.2000000), wk =   0.0017778
        k(  168) = (  -0.2333333   0.7000000  -0.2333333), wk =   0.0017778
        k(  169) = (   0.7333333  -0.2666667   0.7333333), wk =   0.0017778
        k(  170) = (   0.7000000  -0.2333333   0.7000000), wk =   0.0017778
        k(  171) = (   0.6666667  -0.2000000   0.6666667), wk =   0.0017778
        k(  172) = (   0.6333333  -0.1666667   0.6333333), wk =   0.0017778
        k(  173) = (   0.6000000  -0.1333333   0.6000000), wk =   0.0017778
        k(  174) = (   0.5666667  -0.1000000   0.5666667), wk =   0.0017778
        k(  175) = (   0.5333333  -0.0666667   0.5333333), wk =   0.0017778
        k(  176) = (   0.5000000  -0.0333333   0.5000000), wk =   0.0017778
        k(  177) = (   0.4666667   0.0000000   0.4666667), wk =   0.0008889
        k(  178) = (   0.0000000   0.5333333   0.0000000), wk =   0.0004444
        k(  179) = (  -0.0333333   0.5666667  -0.0333333), wk =   0.0017778
        k(  180) = (  -0.0666667   0.6000000  -0.0666667), wk =   0.0017778
        k(  181) = (  -0.1000000   0.6333333  -0.1000000), wk =   0.0017778
        k(  182) = (  -0.1333333   0.6666667  -0.1333333), wk =   0.0017778
        k(  183) = (  -0.1666667   0.7000000  -0.1666667), wk =   0.0017778
        k(  184) = (  -0.2000000   0.7333333  -0.2000000), wk =   0.0017778
        k(  185) = (   0.7666667  -0.2333333   0.7666667), wk =   0.0017778
        k(  186) = (   0.7333333  -0.2000000   0.7333333), wk =   0.0017778
        k(  187) = (   0.7000000  -0.1666667   0.7000000), wk =   0.0017778
        k(  188) = (   0.6666667  -0.1333333   0.6666667), wk =   0.0017778
        k(  189) = (   0.6333333  -0.1000000   0.6333333), wk =   0.0017778
        k(  190) = (   0.6000000  -0.0666667   0.6000000), wk =   0.0017778
        k(  191) = (   0.5666667  -0.0333333   0.5666667), wk =   0.0017778
        k(  192) = (   0.5333333  -0.0000000   0.5333333), wk =   0.0008889
        k(  193) = (   0.0000000   0.6000000   0.0000000), wk =   0.0004444
        k(  194) = (  -0.0333333   0.6333333  -0.0333333), wk =   0.0017778
        k(  195) = (  -0.0666667   0.6666667  -0.0666667), wk =   0.0017778
        k(  196) = (  -0.1000000   0.7000000  -0.1000000), wk =   0.0017778
        k(  197) = (  -0.1333333   0.7333333  -0.1333333), wk =   0.0017778
        k(  198) = (  -0.1666667   0.7666667  -0.1666667), wk =   0.0017778
        k(  199) = (   0.8000000  -0.2000000   0.8000000), wk =   0.0017778
        k(  200) = (   0.7666667  -0.1666667   0.7666667), wk =   0.0017778
        k(  201) = (   0.7333333  -0.1333333   0.7333333), wk =   0.0017778
        k(  202) = (   0.7000000  -0.1000000   0.7000000), wk =   0.0017778
        k(  203) = (   0.6666667  -0.0666667   0.6666667), wk =   0.0017778
        k(  204) = (   0.6333333  -0.0333333   0.6333333), wk =   0.0017778
        k(  205) = (   0.6000000  -0.0000000   0.6000000), wk =   0.0008889
        k(  206) = (   0.0000000   0.6666667   0.0000000), wk =   0.0004444
        k(  207) = (  -0.0333333   0.7000000  -0.0333333), wk =   0.0017778
        k(  208) = (  -0.0666667   0.7333333  -0.0666667), wk =   0.0017778
        k(  209) = (  -0.1000000   0.7666667  -0.1000000), wk =   0.0017778
        k(  210) = (  -0.1333333   0.8000000  -0.1333333), wk =   0.0017778
        k(  211) = (   0.8333333  -0.1666667   0.8333333), wk =   0.0017778
        k(  212) = (   0.8000000  -0.1333333   0.8000000), wk =   0.0017778
        k(  213) = (   0.7666667  -0.1000000   0.7666667), wk =   0.0017778
        k(  214) = (   0.7333333  -0.0666667   0.7333333), wk =   0.0017778
        k(  215) = (   0.7000000  -0.0333333   0.7000000), wk =   0.0017778
        k(  216) = (   0.6666667  -0.0000000   0.6666667), wk =   0.0008889
        k(  217) = (   0.0000000   0.7333333   0.0000000), wk =   0.0004444
        k(  218) = (  -0.0333333   0.7666667  -0.0333333), wk =   0.0017778
        k(  219) = (  -0.0666667   0.8000000  -0.0666667), wk =   0.0017778
        k(  220) = (  -0.1000000   0.8333333  -0.1000000), wk =   0.0017778
        k(  221) = (   0.8666667  -0.1333333   0.8666667), wk =   0.0017778
        k(  222) = (   0.8333333  -0.1000000   0.8333333), wk =   0.0017778
        k(  223) = (   0.8000000  -0.0666667   0.8000000), wk =   0.0017778
        k(  224) = (   0.7666667  -0.0333333   0.7666667), wk =   0.0017778
        k(  225) = (   0.7333333  -0.0000000   0.7333333), wk =   0.0008889
        k(  226) = (   0.0000000   0.8000000   0.0000000), wk =   0.0004444
        k(  227) = (  -0.0333333   0.8333333  -0.0333333), wk =   0.0017778
        k(  228) = (  -0.0666667   0.8666667  -0.0666667), wk =   0.0017778
        k(  229) = (   0.9000000  -0.1000000   0.9000000), wk =   0.0017778
        k(  230) = (   0.8666667  -0.0666667   0.8666667), wk =   0.0017778
        k(  231) = (   0.8333333  -0.0333333   0.8333333), wk =   0.0017778
        k(  232) = (   0.8000000   0.0000000   0.8000000), wk =   0.0008889
        k(  233) = (   0.0000000   0.8666667   0.0000000), wk =   0.0004444
        k(  234) = (  -0.0333333   0.9000000  -0.0333333), wk =   0.0017778
        k(  235) = (   0.9333333  -0.0666667   0.9333333), wk =   0.0017778
        k(  236) = (   0.9000000  -0.0333333   0.9000000), wk =   0.0017778
        k(  237) = (   0.8666667   0.0000000   0.8666667), wk =   0.0008889
        k(  238) = (   0.0000000   0.9333333   0.0000000), wk =   0.0004444
        k(  239) = (   0.9666667  -0.0333333   0.9666667), wk =   0.0017778
        k(  240) = (   0.9333333   0.0000000   0.9333333), wk =   0.0008889
        k(  241) = (   0.0000000  -1.0000000   0.0000000), wk =   0.0002222
        k(  242) = (  -0.0666667   0.1333333   0.0000000), wk =   0.0017778
        k(  243) = (  -0.1000000   0.1666667  -0.0333333), wk =   0.0035556
        k(  244) = (  -0.1333333   0.2000000  -0.0666667), wk =   0.0035556
        k(  245) = (  -0.1666667   0.2333333  -0.1000000), wk =   0.0035556
        k(  246) = (  -0.2000000   0.2666667  -0.1333333), wk =   0.0035556
        k(  247) = (  -0.2333333   0.3000000  -0.1666667), wk =   0.0035556
        k(  248) = (  -0.2666667   0.3333333  -0.2000000), wk =   0.0035556
        k(  249) = (  -0.3000000   0.3666667  -0.2333333), wk =   0.0035556
        k(  250) = (  -0.3333333   0.4000000  -0.2666667), wk =   0.0035556
        k(  251) = (  -0.3666667   0.4333333  -0.3000000), wk =   0.0035556
        k(  252) = (  -0.4000000   0.4666667  -0.3333333), wk =   0.0035556
        k(  253) = (  -0.4333333   0.5000000  -0.3666667), wk =   0.0035556
        k(  254) = (   0.5333333  -0.4666667   0.6000000), wk =   0.0035556
        k(  255) = (   0.5000000  -0.4333333   0.5666667), wk =   0.0017778
        k(  256) = (  -0.0666667   0.2000000   0.0000000), wk =   0.0017778
        k(  257) = (  -0.1000000   0.2333333  -0.0333333), wk =   0.0035556
        k(  258) = (  -0.1333333   0.2666667  -0.0666667), wk =   0.0035556
        k(  259) = (  -0.1666667   0.3000000  -0.1000000), wk =   0.0035556
        k(  260) = (  -0.2000000   0.3333333  -0.1333333), wk =   0.0035556
        k(  261) = (  -0.2333333   0.3666667  -0.1666667), wk =   0.0035556
        k(  262) = (  -0.2666667   0.4000000  -0.2000000), wk =   0.0035556
        k(  263) = (  -0.3000000   0.4333333  -0.2333333), wk =   0.0035556
        k(  264) = (  -0.3333333   0.4666667  -0.2666667), wk =   0.0035556
        k(  265) = (  -0.3666667   0.5000000  -0.3000000), wk =   0.0035556
        k(  266) = (  -0.4000000   0.5333333  -0.3333333), wk =   0.0035556
        k(  267) = (   0.5666667  -0.4333333   0.6333333), wk =   0.0035556
        k(  268) = (   0.5333333  -0.4000000   0.6000000), wk =   0.0035556
        k(  269) = (   0.5000000  -0.3666667   0.5666667), wk =   0.0035556
        k(  270) = (   0.4666667  -0.3333333   0.5333333), wk =   0.0035556
        k(  271) = (   0.4333333  -0.3000000   0.5000000), wk =   0.0035556
        k(  272) = (   0.4000000  -0.2666667   0.4666667), wk =   0.0035556
        k(  273) = (   0.3666667  -0.2333333   0.4333333), wk =   0.0035556
        k(  274) = (   0.3333333  -0.2000000   0.4000000), wk =   0.0035556
        k(  275) = (   0.3000000  -0.1666667   0.3666667), wk =   0.0035556
        k(  276) = (   0.2666667  -0.1333333   0.3333333), wk =   0.0035556
        k(  277) = (   0.2333333  -0.1000000   0.3000000), wk =   0.0035556
        k(  278) = (   0.2000000  -0.0666667   0.2666667), wk =   0.0035556
        k(  279) = (   0.1666667  -0.0333333   0.2333333), wk =   0.0035556
        k(  280) = (   0.1333333   0.0000000   0.2000000), wk =   0.0017778
        k(  281) = (  -0.0666667   0.2666667   0.0000000), wk =   0.0017778
        k(  282) = (  -0.1000000   0.3000000  -0.0333333), wk =   0.0035556
        k(  283) = (  -0.1333333   0.3333333  -0.0666667), wk =   0.0035556
        k(  284) = (  -0.1666667   0.3666667  -0.1000000), wk =   0.0035556
        k(  285) = (  -0.2000000   0.4000000  -0.1333333), wk =   0.0035556
        k(  286) = (  -0.2333333   0.4333333  -0.1666667), wk =   0.0035556
        k(  287) = (  -0.2666667   0.4666667  -0.2000000), wk =   0.0035556
        k(  288) = (  -0.3000000   0.5000000  -0.2333333), wk =   0.0035556
        k(  289) = (  -0.3333333   0.5333333  -0.2666667), wk =   0.0035556
        k(  290) = (  -0.3666667   0.5666667  -0.3000000), wk =   0.0035556
        k(  291) = (   0.6000000  -0.4000000   0.6666667), wk =   0.0035556
        k(  292) = (   0.5666667  -0.3666667   0.6333333), wk =   0.0035556
        k(  293) = (   0.5333333  -0.3333333   0.6000000), wk =   0.0035556
        k(  294) = (   0.5000000  -0.3000000   0.5666667), wk =   0.0035556
        k(  295) = (   0.4666667  -0.2666667   0.5333333), wk =   0.0035556
        k(  296) = (   0.4333333  -0.2333333   0.5000000), wk =   0.0035556
        k(  297) = (   0.4000000  -0.2000000   0.4666667), wk =   0.0035556
        k(  298) = (   0.3666667  -0.1666667   0.4333333), wk =   0.0035556
        k(  299) = (   0.3333333  -0.1333333   0.4000000), wk =   0.0035556
        k(  300) = (   0.3000000  -0.1000000   0.3666667), wk =   0.0035556
        k(  301) = (   0.2666667  -0.0666667   0.3333333), wk =   0.0035556
        k(  302) = (   0.2333333  -0.0333333   0.3000000), wk =   0.0035556
        k(  303) = (   0.2000000   0.0000000   0.2666667), wk =   0.0017778
        k(  304) = (  -0.0666667   0.3333333  -0.0000000), wk =   0.0017778
        k(  305) = (  -0.1000000   0.3666667  -0.0333333), wk =   0.0035556
        k(  306) = (  -0.1333333   0.4000000  -0.0666667), wk =   0.0035556
        k(  307) = (  -0.1666667   0.4333333  -0.1000000), wk =   0.0035556
        k(  308) = (  -0.2000000   0.4666667  -0.1333333), wk =   0.0035556
        k(  309) = (  -0.2333333   0.5000000  -0.1666667), wk =   0.0035556
        k(  310) = (  -0.2666667   0.5333333  -0.2000000), wk =   0.0035556
        k(  311) = (  -0.3000000   0.5666667  -0.2333333), wk =   0.0035556
        k(  312) = (  -0.3333333   0.6000000  -0.2666667), wk =   0.0035556
        k(  313) = (   0.6333333  -0.3666667   0.7000000), wk =   0.0035556
        k(  314) = (   0.6000000  -0.3333333   0.6666667), wk =   0.0035556
        k(  315) = (   0.5666667  -0.3000000   0.6333333), wk =   0.0035556
        k(  316) = (   0.5333333  -0.2666667   0.6000000), wk =   0.0035556
        k(  317) = (   0.5000000  -0.2333333   0.5666667), wk =   0.0035556
        k(  318) = (   0.4666667  -0.2000000   0.5333333), wk =   0.0035556
        k(  319) = (   0.4333333  -0.1666667   0.5000000), wk =   0.0035556
        k(  320) = (   0.4000000  -0.1333333   0.4666667), wk =   0.0035556
        k(  321) = (   0.3666667  -0.1000000   0.4333333), wk =   0.0035556
        k(  322) = (   0.3333333  -0.0666667   0.4000000), wk =   0.0035556
        k(  323) = (   0.3000000  -0.0333333   0.3666667), wk =   0.0035556
        k(  324) = (   0.2666667   0.0000000   0.3333333), wk =   0.0017778
        k(  325) = (  -0.0666667   0.4000000   0.0000000), wk =   0.0017778
        k(  326) = (  -0.1000000   0.4333333  -0.0333333), wk =   0.0035556
        k(  327) = (  -0.1333333   0.4666667  -0.0666667), wk =   0.0035556
        k(  328) = (  -0.1666667   0.5000000  -0.1000000), wk =   0.0035556
        k(  329) = (  -0.2000000   0.5333333  -0.1333333), wk =   0.0035556
        k(  330) = (  -0.2333333   0.5666667  -0.1666667), wk =   0.0035556
        k(  331) = (  -0.2666667   0.6000000  -0.2000000), wk =   0.0035556
        k(  332) = (  -0.3000000   0.6333333  -0.2333333), wk =   0.0035556
        k(  333) = (   0.6666667  -0.3333333   0.7333333), wk =   0.0035556
        k(  334) = (   0.6333333  -0.3000000   0.7000000), wk =   0.0035556
        k(  335) = (   0.6000000  -0.2666667   0.6666667), wk =   0.0035556
        k(  336) = (   0.5666667  -0.2333333   0.6333333), wk =   0.0035556
        k(  337) = (   0.5333333  -0.2000000   0.6000000), wk =   0.0035556
        k(  338) = (   0.5000000  -0.1666667   0.5666667), wk =   0.0035556
        k(  339) = (   0.4666667  -0.1333333   0.5333333), wk =   0.0035556
        k(  340) = (   0.4333333  -0.1000000   0.5000000), wk =   0.0035556
        k(  341) = (   0.4000000  -0.0666667   0.4666667), wk =   0.0035556
        k(  342) = (   0.3666667  -0.0333333   0.4333333), wk =   0.0035556
        k(  343) = (   0.3333333   0.0000000   0.4000000), wk =   0.0017778
        k(  344) = (  -0.0666667   0.4666667   0.0000000), wk =   0.0017778
        k(  345) = (  -0.1000000   0.5000000  -0.0333333), wk =   0.0035556
        k(  346) = (  -0.1333333   0.5333333  -0.0666667), wk =   0.0035556
        k(  347) = (  -0.1666667   0.5666667  -0.1000000), wk =   0.0035556
        k(  348) = (  -0.2000000   0.6000000  -0.1333333), wk =   0.0035556
        k(  349) = (  -0.2333333   0.6333333  -0.1666667), wk =   0.0035556
        k(  350) = (  -0.2666667   0.6666667  -0.2000000), wk =   0.0035556
        k(  351) = (   0.7000000  -0.3000000   0.7666667), wk =   0.0035556
        k(  352) = (   0.6666667  -0.2666667   0.7333333), wk =   0.0035556
        k(  353) = (   0.6333333  -0.2333333   0.7000000), wk =   0.0035556
        k(  354) = (   0.6000000  -0.2000000   0.6666667), wk =   0.0035556
        k(  355) = (   0.5666667  -0.1666667   0.6333333), wk =   0.0035556
        k(  356) = (   0.5333333  -0.1333333   0.6000000), wk =   0.0035556
        k(  357) = (   0.5000000  -0.1000000   0.5666667), wk =   0.0035556
        k(  358) = (   0.4666667  -0.0666667   0.5333333), wk =   0.0035556
        k(  359) = (   0.4333333  -0.0333333   0.5000000), wk =   0.0035556
        k(  360) = (   0.4000000   0.0000000   0.4666667), wk =   0.0017778
        k(  361) = (  -0.0666667   0.5333333   0.0000000), wk =   0.0017778
        k(  362) = (  -0.1000000   0.5666667  -0.0333333), wk =   0.0035556
        k(  363) = (  -0.1333333   0.6000000  -0.0666667), wk =   0.0035556
        k(  364) = (  -0.1666667   0.6333333  -0.1000000), wk =   0.0035556
        k(  365) = (  -0.2000000   0.6666667  -0.1333333), wk =   0.0035556
        k(  366) = (  -0.2333333   0.7000000  -0.1666667), wk =   0.0035556
        k(  367) = (   0.7333333  -0.2666667   0.8000000), wk =   0.0035556
        k(  368) = (   0.7000000  -0.2333333   0.7666667), wk =   0.0035556
        k(  369) = (   0.6666667  -0.2000000   0.7333333), wk =   0.0035556
        k(  370) = (   0.6333333  -0.1666667   0.7000000), wk =   0.0035556
        k(  371) = (   0.6000000  -0.1333333   0.6666667), wk =   0.0035556
        k(  372) = (   0.5666667  -0.1000000   0.6333333), wk =   0.0035556
        k(  373) = (   0.5333333  -0.0666667   0.6000000), wk =   0.0035556
        k(  374) = (   0.5000000  -0.0333333   0.5666667), wk =   0.0035556
        k(  375) = (   0.4666667   0.0000000   0.5333333), wk =   0.0017778
        k(  376) = (  -0.0666667   0.6000000   0.0000000), wk =   0.0017778
        k(  377) = (  -0.1000000   0.6333333  -0.0333333), wk =   0.0035556
        k(  378) = (  -0.1333333   0.6666667  -0.0666667), wk =   0.0035556
        k(  379) = (  -0.1666667   0.7000000  -0.1000000), wk =   0.0035556
        k(  380) = (  -0.2000000   0.7333333  -0.1333333), wk =   0.0035556
        k(  381) = (   0.7666667  -0.2333333   0.8333333), wk =   0.0035556
        k(  382) = (   0.7333333  -0.2000000   0.8000000), wk =   0.0035556
        k(  383) = (   0.7000000  -0.1666667   0.7666667), wk =   0.0035556
        k(  384) = (   0.6666667  -0.1333333   0.7333333), wk =   0.0035556
        k(  385) = (   0.6333333  -0.1000000   0.7000000), wk =   0.0035556
        k(  386) = (   0.6000000  -0.0666667   0.6666667), wk =   0.0035556
        k(  387) = (   0.5666667  -0.0333333   0.6333333), wk =   0.0035556
        k(  388) = (   0.5333333  -0.0000000   0.6000000), wk =   0.0017778
        k(  389) = (  -0.0666667   0.6666667   0.0000000), wk =   0.0017778
        k(  390) = (  -0.1000000   0.7000000  -0.0333333), wk =   0.0035556
        k(  391) = (  -0.1333333   0.7333333  -0.0666667), wk =   0.0035556
        k(  392) = (  -0.1666667   0.7666667  -0.1000000), wk =   0.0035556
        k(  393) = (   0.8000000  -0.2000000   0.8666667), wk =   0.0035556
        k(  394) = (   0.7666667  -0.1666667   0.8333333), wk =   0.0035556
        k(  395) = (   0.7333333  -0.1333333   0.8000000), wk =   0.0035556
        k(  396) = (   0.7000000  -0.1000000   0.7666667), wk =   0.0035556
        k(  397) = (   0.6666667  -0.0666667   0.7333333), wk =   0.0035556
        k(  398) = (   0.6333333  -0.0333333   0.7000000), wk =   0.0035556
        k(  399) = (   0.6000000  -0.0000000   0.6666667), wk =   0.0017778
        k(  400) = (  -0.0666667   0.7333333  -0.0000000), wk =   0.0017778
        k(  401) = (  -0.1000000   0.7666667  -0.0333333), wk =   0.0035556
        k(  402) = (  -0.1333333   0.8000000  -0.0666667), wk =   0.0035556
        k(  403) = (   0.8333333  -0.1666667   0.9000000), wk =   0.0035556
        k(  404) = (   0.8000000  -0.1333333   0.8666667), wk =   0.0035556
        k(  405) = (   0.7666667  -0.1000000   0.8333333), wk =   0.0035556
        k(  406) = (   0.7333333  -0.0666667   0.8000000), wk =   0.0035556
        k(  407) = (   0.7000000  -0.0333333   0.7666667), wk =   0.0035556
        k(  408) = (   0.6666667  -0.0000000   0.7333333), wk =   0.0017778
        k(  409) = (  -0.0666667   0.8000000   0.0000000), wk =   0.0017778
        k(  410) = (  -0.1000000   0.8333333  -0.0333333), wk =   0.0035556
        k(  411) = (   0.8666667  -0.1333333   0.9333333), wk =   0.0035556
        k(  412) = (   0.8333333  -0.1000000   0.9000000), wk =   0.0035556
        k(  413) = (   0.8000000  -0.0666667   0.8666667), wk =   0.0035556
        k(  414) = (   0.7666667  -0.0333333   0.8333333), wk =   0.0035556
        k(  415) = (   0.7333333   0.0000000   0.8000000), wk =   0.0017778
        k(  416) = (  -0.0666667   0.8666667   0.0000000), wk =   0.0017778
        k(  417) = (   0.9000000  -0.1000000   0.9666667), wk =   0.0035556
        k(  418) = (   0.8666667  -0.0666667   0.9333333), wk =   0.0035556
        k(  419) = (   0.8333333  -0.0333333   0.9000000), wk =   0.0035556
        k(  420) = (   0.8000000   0.0000000   0.8666667), wk =   0.0017778
        k(  421) = (   0.9333333  -0.0666667   1.0000000), wk =   0.0017778
        k(  422) = (   0.9000000  -0.0333333   0.9666667), wk =   0.0035556
        k(  423) = (   0.8666667   0.0000000   0.9333333), wk =   0.0017778
        k(  424) = (  -0.0666667  -1.0000000   0.0000000), wk =   0.0008889
        k(  425) = (  -0.1333333   0.2666667   0.0000000), wk =   0.0017778
        k(  426) = (  -0.1666667   0.3000000  -0.0333333), wk =   0.0035556
        k(  427) = (  -0.2000000   0.3333333  -0.0666667), wk =   0.0035556
        k(  428) = (  -0.2333333   0.3666667  -0.1000000), wk =   0.0035556
        k(  429) = (  -0.2666667   0.4000000  -0.1333333), wk =   0.0035556
        k(  430) = (  -0.3000000   0.4333333  -0.1666667), wk =   0.0035556
        k(  431) = (  -0.3333333   0.4666667  -0.2000000), wk =   0.0035556
        k(  432) = (  -0.3666667   0.5000000  -0.2333333), wk =   0.0035556
        k(  433) = (  -0.4000000   0.5333333  -0.2666667), wk =   0.0035556
        k(  434) = (   0.5666667  -0.4333333   0.7000000), wk =   0.0035556
        k(  435) = (   0.5333333  -0.4000000   0.6666667), wk =   0.0035556
        k(  436) = (   0.5000000  -0.3666667   0.6333333), wk =   0.0017778
        k(  437) = (  -0.1333333   0.3333333   0.0000000), wk =   0.0017778
        k(  438) = (  -0.1666667   0.3666667  -0.0333333), wk =   0.0035556
        k(  439) = (  -0.2000000   0.4000000  -0.0666667), wk =   0.0035556
        k(  440) = (  -0.2333333   0.4333333  -0.1000000), wk =   0.0035556
        k(  441) = (  -0.2666667   0.4666667  -0.1333333), wk =   0.0035556
        k(  442) = (  -0.3000000   0.5000000  -0.1666667), wk =   0.0035556
        k(  443) = (  -0.3333333   0.5333333  -0.2000000), wk =   0.0035556
        k(  444) = (  -0.3666667   0.5666667  -0.2333333), wk =   0.0035556
        k(  445) = (   0.6000000  -0.4000000   0.7333333), wk =   0.0035556
        k(  446) = (   0.5666667  -0.3666667   0.7000000), wk =   0.0035556
        k(  447) = (   0.5333333  -0.3333333   0.6666667), wk =   0.0035556
        k(  448) = (   0.5000000  -0.3000000   0.6333333), wk =   0.0035556
        k(  449) = (   0.4666667  -0.2666667   0.6000000), wk =   0.0035556
        k(  450) = (   0.4333333  -0.2333333   0.5666667), wk =   0.0035556
        k(  451) = (   0.4000000  -0.2000000   0.5333333), wk =   0.0035556
        k(  452) = (   0.3666667  -0.1666667   0.5000000), wk =   0.0035556
        k(  453) = (   0.3333333  -0.1333333   0.4666667), wk =   0.0035556
        k(  454) = (   0.3000000  -0.1000000   0.4333333), wk =   0.0035556
        k(  455) = (   0.2666667  -0.0666667   0.4000000), wk =   0.0035556
        k(  456) = (   0.2333333  -0.0333333   0.3666667), wk =   0.0035556
        k(  457) = (   0.2000000   0.0000000   0.3333333), wk =   0.0017778
        k(  458) = (  -0.1333333   0.4000000   0.0000000), wk =   0.0017778
        k(  459) = (  -0.1666667   0.4333333  -0.0333333), wk =   0.0035556
        k(  460) = (  -0.2000000   0.4666667  -0.0666667), wk =   0.0035556
        k(  461) = (  -0.2333333   0.5000000  -0.1000000), wk =   0.0035556
        k(  462) = (  -0.2666667   0.5333333  -0.1333333), wk =   0.0035556
        k(  463) = (  -0.3000000   0.5666667  -0.1666667), wk =   0.0035556
        k(  464) = (  -0.3333333   0.6000000  -0.2000000), wk =   0.0035556
        k(  465) = (   0.6333333  -0.3666667   0.7666667), wk =   0.0035556
        k(  466) = (   0.6000000  -0.3333333   0.7333333), wk =   0.0035556
        k(  467) = (   0.5666667  -0.3000000   0.7000000), wk =   0.0035556
        k(  468) = (   0.5333333  -0.2666667   0.6666667), wk =   0.0035556
        k(  469) = (   0.5000000  -0.2333333   0.6333333), wk =   0.0035556
        k(  470) = (   0.4666667  -0.2000000   0.6000000), wk =   0.0035556
        k(  471) = (   0.4333333  -0.1666667   0.5666667), wk =   0.0035556
        k(  472) = (   0.4000000  -0.1333333   0.5333333), wk =   0.0035556
        k(  473) = (   0.3666667  -0.1000000   0.5000000), wk =   0.0035556
        k(  474) = (   0.3333333  -0.0666667   0.4666667), wk =   0.0035556
        k(  475) = (   0.3000000  -0.0333333   0.4333333), wk =   0.0035556
        k(  476) = (   0.2666667   0.0000000   0.4000000), wk =   0.0017778
        k(  477) = (  -0.1333333   0.4666667   0.0000000), wk =   0.0017778
        k(  478) = (  -0.1666667   0.5000000  -0.0333333), wk =   0.0035556
        k(  479) = (  -0.2000000   0.5333333  -0.0666667), wk =   0.0035556
        k(  480) = (  -0.2333333   0.5666667  -0.1000000), wk =   0.0035556
        k(  481) = (  -0.2666667   0.6000000  -0.1333333), wk =   0.0035556
        k(  482) = (  -0.3000000   0.6333333  -0.1666667), wk =   0.0035556
        k(  483) = (   0.6666667  -0.3333333   0.8000000), wk =   0.0035556
        k(  484) = (   0.6333333  -0.3000000   0.7666667), wk =   0.0035556
        k(  485) = (   0.6000000  -0.2666667   0.7333333), wk =   0.0035556
        k(  486) = (   0.5666667  -0.2333333   0.7000000), wk =   0.0035556
        k(  487) = (   0.5333333  -0.2000000   0.6666667), wk =   0.0035556
        k(  488) = (   0.5000000  -0.1666667   0.6333333), wk =   0.0035556
        k(  489) = (   0.4666667  -0.1333333   0.6000000), wk =   0.0035556
        k(  490) = (   0.4333333  -0.1000000   0.5666667), wk =   0.0035556
        k(  491) = (   0.4000000  -0.0666667   0.5333333), wk =   0.0035556
        k(  492) = (   0.3666667  -0.0333333   0.5000000), wk =   0.0035556
        k(  493) = (   0.3333333   0.0000000   0.4666667), wk =   0.0017778
        k(  494) = (  -0.1333333   0.5333333   0.0000000), wk =   0.0017778
        k(  495) = (  -0.1666667   0.5666667  -0.0333333), wk =   0.0035556
        k(  496) = (  -0.2000000   0.6000000  -0.0666667), wk =   0.0035556
        k(  497) = (  -0.2333333   0.6333333  -0.1000000), wk =   0.0035556
        k(  498) = (  -0.2666667   0.6666667  -0.1333333), wk =   0.0035556
        k(  499) = (   0.7000000  -0.3000000   0.8333333), wk =   0.0035556
        k(  500) = (   0.6666667  -0.2666667   0.8000000), wk =   0.0035556
        k(  501) = (   0.6333333  -0.2333333   0.7666667), wk =   0.0035556
        k(  502) = (   0.6000000  -0.2000000   0.7333333), wk =   0.0035556
        k(  503) = (   0.5666667  -0.1666667   0.7000000), wk =   0.0035556
        k(  504) = (   0.5333333  -0.1333333   0.6666667), wk =   0.0035556
        k(  505) = (   0.5000000  -0.1000000   0.6333333), wk =   0.0035556
        k(  506) = (   0.4666667  -0.0666667   0.6000000), wk =   0.0035556
        k(  507) = (   0.4333333  -0.0333333   0.5666667), wk =   0.0035556
        k(  508) = (   0.4000000   0.0000000   0.5333333), wk =   0.0017778
        k(  509) = (  -0.1333333   0.6000000   0.0000000), wk =   0.0017778
        k(  510) = (  -0.1666667   0.6333333  -0.0333333), wk =   0.0035556
        k(  511) = (  -0.2000000   0.6666667  -0.0666667), wk =   0.0035556
        k(  512) = (  -0.2333333   0.7000000  -0.1000000), wk =   0.0035556
        k(  513) = (   0.7333333  -0.2666667   0.8666667), wk =   0.0035556
        k(  514) = (   0.7000000  -0.2333333   0.8333333), wk =   0.0035556
        k(  515) = (   0.6666667  -0.2000000   0.8000000), wk =   0.0035556
        k(  516) = (   0.6333333  -0.1666667   0.7666667), wk =   0.0035556
        k(  517) = (   0.6000000  -0.1333333   0.7333333), wk =   0.0035556
        k(  518) = (   0.5666667  -0.1000000   0.7000000), wk =   0.0035556
        k(  519) = (   0.5333333  -0.0666667   0.6666667), wk =   0.0035556
        k(  520) = (   0.5000000  -0.0333333   0.6333333), wk =   0.0035556
        k(  521) = (   0.4666667   0.0000000   0.6000000), wk =   0.0017778
        k(  522) = (  -0.1333333   0.6666667  -0.0000000), wk =   0.0017778
        k(  523) = (  -0.1666667   0.7000000  -0.0333333), wk =   0.0035556
        k(  524) = (  -0.2000000   0.7333333  -0.0666667), wk =   0.0035556
        k(  525) = (   0.7666667  -0.2333333   0.9000000), wk =   0.0035556
        k(  526) = (   0.7333333  -0.2000000   0.8666667), wk =   0.0035556
        k(  527) = (   0.7000000  -0.1666667   0.8333333), wk =   0.0035556
        k(  528) = (   0.6666667  -0.1333333   0.8000000), wk =   0.0035556
        k(  529) = (   0.6333333  -0.1000000   0.7666667), wk =   0.0035556
        k(  530) = (   0.6000000  -0.0666667   0.7333333), wk =   0.0035556
        k(  531) = (   0.5666667  -0.0333333   0.7000000), wk =   0.0035556
        k(  532) = (   0.5333333  -0.0000000   0.6666667), wk =   0.0017778
        k(  533) = (  -0.1333333   0.7333333  -0.0000000), wk =   0.0017778
        k(  534) = (  -0.1666667   0.7666667  -0.0333333), wk =   0.0035556
        k(  535) = (   0.8000000  -0.2000000   0.9333333), wk =   0.0035556
        k(  536) = (   0.7666667  -0.1666667   0.9000000), wk =   0.0035556
        k(  537) = (   0.7333333  -0.1333333   0.8666667), wk =   0.0035556
        k(  538) = (   0.7000000  -0.1000000   0.8333333), wk =   0.0035556
        k(  539) = (   0.6666667  -0.0666667   0.8000000), wk =   0.0035556
        k(  540) = (   0.6333333  -0.0333333   0.7666667), wk =   0.0035556
        k(  541) = (   0.6000000  -0.0000000   0.7333333), wk =   0.0017778
        k(  542) = (  -0.1333333   0.8000000   0.0000000), wk =   0.0017778
        k(  543) = (   0.8333333  -0.1666667   0.9666667), wk =   0.0035556
        k(  544) = (   0.8000000  -0.1333333   0.9333333), wk =   0.0035556
        k(  545) = (   0.7666667  -0.1000000   0.9000000), wk =   0.0035556
        k(  546) = (   0.7333333  -0.0666667   0.8666667), wk =   0.0035556
        k(  547) = (   0.7000000  -0.0333333   0.8333333), wk =   0.0035556
        k(  548) = (   0.6666667   0.0000000   0.8000000), wk =   0.0017778
        k(  549) = (   0.8666667  -0.1333333   1.0000000), wk =   0.0017778
        k(  550) = (   0.8333333  -0.1000000   0.9666667), wk =   0.0035556
        k(  551) = (   0.8000000  -0.0666667   0.9333333), wk =   0.0035556
        k(  552) = (   0.7666667  -0.0333333   0.9000000), wk =   0.0035556
        k(  553) = (   0.7333333   0.0000000   0.8666667), wk =   0.0017778
        k(  554) = (   0.8666667  -0.0666667   1.0000000), wk =   0.0017778
        k(  555) = (   0.8333333  -0.0333333   0.9666667), wk =   0.0035556
        k(  556) = (   0.8000000   0.0000000   0.9333333), wk =   0.0017778
        k(  557) = (  -0.1333333  -1.0000000   0.0000000), wk =   0.0008889
        k(  558) = (  -0.2000000   0.4000000   0.0000000), wk =   0.0017778
        k(  559) = (  -0.2333333   0.4333333  -0.0333333), wk =   0.0035556
        k(  560) = (  -0.2666667   0.4666667  -0.0666667), wk =   0.0035556
        k(  561) = (  -0.3000000   0.5000000  -0.1000000), wk =   0.0035556
        k(  562) = (  -0.3333333   0.5333333  -0.1333333), wk =   0.0035556
        k(  563) = (  -0.3666667   0.5666667  -0.1666667), wk =   0.0035556
        k(  564) = (   0.6000000  -0.4000000   0.8000000), wk =   0.0035556
        k(  565) = (   0.5666667  -0.3666667   0.7666667), wk =   0.0035556
        k(  566) = (   0.5333333  -0.3333333   0.7333333), wk =   0.0035556
        k(  567) = (   0.5000000  -0.3000000   0.7000000), wk =   0.0017778
        k(  568) = (  -0.2000000   0.4666667   0.0000000), wk =   0.0017778
        k(  569) = (  -0.2333333   0.5000000  -0.0333333), wk =   0.0035556
        k(  570) = (  -0.2666667   0.5333333  -0.0666667), wk =   0.0035556
        k(  571) = (  -0.3000000   0.5666667  -0.1000000), wk =   0.0035556
        k(  572) = (  -0.3333333   0.6000000  -0.1333333), wk =   0.0035556
        k(  573) = (   0.6333333  -0.3666667   0.8333333), wk =   0.0035556
        k(  574) = (   0.6000000  -0.3333333   0.8000000), wk =   0.0035556
        k(  575) = (   0.5666667  -0.3000000   0.7666667), wk =   0.0035556
        k(  576) = (   0.5333333  -0.2666667   0.7333333), wk =   0.0035556
        k(  577) = (   0.5000000  -0.2333333   0.7000000), wk =   0.0035556
        k(  578) = (   0.4666667  -0.2000000   0.6666667), wk =   0.0035556
        k(  579) = (   0.4333333  -0.1666667   0.6333333), wk =   0.0035556
        k(  580) = (   0.4000000  -0.1333333   0.6000000), wk =   0.0035556
        k(  581) = (   0.3666667  -0.1000000   0.5666667), wk =   0.0035556
        k(  582) = (   0.3333333  -0.0666667   0.5333333), wk =   0.0035556
        k(  583) = (   0.3000000  -0.0333333   0.5000000), wk =   0.0035556
        k(  584) = (   0.2666667   0.0000000   0.4666667), wk =   0.0017778
        k(  585) = (  -0.2000000   0.5333333   0.0000000), wk =   0.0017778
        k(  586) = (  -0.2333333   0.5666667  -0.0333333), wk =   0.0035556
        k(  587) = (  -0.2666667   0.6000000  -0.0666667), wk =   0.0035556
        k(  588) = (  -0.3000000   0.6333333  -0.1000000), wk =   0.0035556
        k(  589) = (   0.6666667  -0.3333333   0.8666667), wk =   0.0035556
        k(  590) = (   0.6333333  -0.3000000   0.8333333), wk =   0.0035556
        k(  591) = (   0.6000000  -0.2666667   0.8000000), wk =   0.0035556
        k(  592) = (   0.5666667  -0.2333333   0.7666667), wk =   0.0035556
        k(  593) = (   0.5333333  -0.2000000   0.7333333), wk =   0.0035556
        k(  594) = (   0.5000000  -0.1666667   0.7000000), wk =   0.0035556
        k(  595) = (   0.4666667  -0.1333333   0.6666667), wk =   0.0035556
        k(  596) = (   0.4333333  -0.1000000   0.6333333), wk =   0.0035556
        k(  597) = (   0.4000000  -0.0666667   0.6000000), wk =   0.0035556
        k(  598) = (   0.3666667  -0.0333333   0.5666667), wk =   0.0035556
        k(  599) = (   0.3333333   0.0000000   0.5333333), wk =   0.0017778
        k(  600) = (  -0.2000000   0.6000000   0.0000000), wk =   0.0017778
        k(  601) = (  -0.2333333   0.6333333  -0.0333333), wk =   0.0035556
        k(  602) = (  -0.2666667   0.6666667  -0.0666667), wk =   0.0035556
        k(  603) = (   0.7000000  -0.3000000   0.9000000), wk =   0.0035556
        k(  604) = (   0.6666667  -0.2666667   0.8666667), wk =   0.0035556
        k(  605) = (   0.6333333  -0.2333333   0.8333333), wk =   0.0035556
        k(  606) = (   0.6000000  -0.2000000   0.8000000), wk =   0.0035556
        k(  607) = (   0.5666667  -0.1666667   0.7666667), wk =   0.0035556
        k(  608) = (   0.5333333  -0.1333333   0.7333333), wk =   0.0035556
        k(  609) = (   0.5000000  -0.1000000   0.7000000), wk =   0.0035556
        k(  610) = (   0.4666667  -0.0666667   0.6666667), wk =   0.0035556
        k(  611) = (   0.4333333  -0.0333333   0.6333333), wk =   0.0035556
        k(  612) = (   0.4000000   0.0000000   0.6000000), wk =   0.0017778
        k(  613) = (  -0.2000000   0.6666667   0.0000000), wk =   0.0017778
        k(  614) = (  -0.2333333   0.7000000  -0.0333333), wk =   0.0035556
        k(  615) = (   0.7333333  -0.2666667   0.9333333), wk =   0.0035556
        k(  616) = (   0.7000000  -0.2333333   0.9000000), wk =   0.0035556
        k(  617) = (   0.6666667  -0.2000000   0.8666667), wk =   0.0035556
        k(  618) = (   0.6333333  -0.1666667   0.8333333), wk =   0.0035556
        k(  619) = (   0.6000000  -0.1333333   0.8000000), wk =   0.0035556
        k(  620) = (   0.5666667  -0.1000000   0.7666667), wk =   0.0035556
        k(  621) = (   0.5333333  -0.0666667   0.7333333), wk =   0.0035556
        k(  622) = (   0.5000000  -0.0333333   0.7000000), wk =   0.0035556
        k(  623) = (   0.4666667   0.0000000   0.6666667), wk =   0.0017778
        k(  624) = (  -0.2000000   0.7333333   0.0000000), wk =   0.0017778
        k(  625) = (   0.7666667  -0.2333333   0.9666667), wk =   0.0035556
        k(  626) = (   0.7333333  -0.2000000   0.9333333), wk =   0.0035556
        k(  627) = (   0.7000000  -0.1666667   0.9000000), wk =   0.0035556
        k(  628) = (   0.6666667  -0.1333333   0.8666667), wk =   0.0035556
        k(  629) = (   0.6333333  -0.1000000   0.8333333), wk =   0.0035556
        k(  630) = (   0.6000000  -0.0666667   0.8000000), wk =   0.0035556
        k(  631) = (   0.5666667  -0.0333333   0.7666667), wk =   0.0035556
        k(  632) = (   0.5333333  -0.0000000   0.7333333), wk =   0.0017778
        k(  633) = (   0.8000000  -0.2000000   1.0000000), wk =   0.0017778
        k(  634) = (   0.7666667  -0.1666667   0.9666667), wk =   0.0035556
        k(  635) = (   0.7333333  -0.1333333   0.9333333), wk =   0.0035556
        k(  636) = (   0.7000000  -0.1000000   0.9000000), wk =   0.0035556
        k(  637) = (   0.6666667  -0.0666667   0.8666667), wk =   0.0035556
        k(  638) = (   0.6333333  -0.0333333   0.8333333), wk =   0.0035556
        k(  639) = (   0.6000000   0.0000000   0.8000000), wk =   0.0017778
        k(  640) = (   0.8000000  -0.1333333   1.0000000), wk =   0.0017778
        k(  641) = (   0.7666667  -0.1000000   0.9666667), wk =   0.0035556
        k(  642) = (   0.7333333  -0.0666667   0.9333333), wk =   0.0035556
        k(  643) = (   0.7000000  -0.0333333   0.9000000), wk =   0.0035556
        k(  644) = (   0.6666667   0.0000000   0.8666667), wk =   0.0017778
        k(  645) = (   0.8000000  -0.0666667   1.0000000), wk =   0.0017778
        k(  646) = (   0.7666667  -0.0333333   0.9666667), wk =   0.0035556
        k(  647) = (   0.7333333   0.0000000   0.9333333), wk =   0.0017778
        k(  648) = (  -0.2000000  -1.0000000   0.0000000), wk =   0.0008889
        k(  649) = (  -0.2666667   0.5333333   0.0000000), wk =   0.0017778
        k(  650) = (  -0.3000000   0.5666667  -0.0333333), wk =   0.0035556
        k(  651) = (  -0.3333333   0.6000000  -0.0666667), wk =   0.0035556
        k(  652) = (   0.6333333  -0.3666667   0.9000000), wk =   0.0035556
        k(  653) = (   0.6000000  -0.3333333   0.8666667), wk =   0.0035556
        k(  654) = (   0.5666667  -0.3000000   0.8333333), wk =   0.0035556
        k(  655) = (   0.5333333  -0.2666667   0.8000000), wk =   0.0035556
        k(  656) = (   0.5000000  -0.2333333   0.7666667), wk =   0.0017778
        k(  657) = (  -0.2666667   0.6000000   0.0000000), wk =   0.0017778
        k(  658) = (  -0.3000000   0.6333333  -0.0333333), wk =   0.0035556
        k(  659) = (   0.6666667  -0.3333333   0.9333333), wk =   0.0035556
        k(  660) = (   0.6333333  -0.3000000   0.9000000), wk =   0.0035556
        k(  661) = (   0.6000000  -0.2666667   0.8666667), wk =   0.0035556
        k(  662) = (   0.5666667  -0.2333333   0.8333333), wk =   0.0035556
        k(  663) = (   0.5333333  -0.2000000   0.8000000), wk =   0.0035556
        k(  664) = (   0.5000000  -0.1666667   0.7666667), wk =   0.0035556
        k(  665) = (   0.4666667  -0.1333333   0.7333333), wk =   0.0035556
        k(  666) = (   0.4333333  -0.1000000   0.7000000), wk =   0.0035556
        k(  667) = (   0.4000000  -0.0666667   0.6666667), wk =   0.0035556
        k(  668) = (   0.3666667  -0.0333333   0.6333333), wk =   0.0035556
        k(  669) = (   0.3333333   0.0000000   0.6000000), wk =   0.0017778
        k(  670) = (  -0.2666667   0.6666667   0.0000000), wk =   0.0017778
        k(  671) = (   0.7000000  -0.3000000   0.9666667), wk =   0.0035556
        k(  672) = (   0.6666667  -0.2666667   0.9333333), wk =   0.0035556
        k(  673) = (   0.6333333  -0.2333333   0.9000000), wk =   0.0035556
        k(  674) = (   0.6000000  -0.2000000   0.8666667), wk =   0.0035556
        k(  675) = (   0.5666667  -0.1666667   0.8333333), wk =   0.0035556
        k(  676) = (   0.5333333  -0.1333333   0.8000000), wk =   0.0035556
        k(  677) = (   0.5000000  -0.1000000   0.7666667), wk =   0.0035556
        k(  678) = (   0.4666667  -0.0666667   0.7333333), wk =   0.0035556
        k(  679) = (   0.4333333  -0.0333333   0.7000000), wk =   0.0035556
        k(  680) = (   0.4000000   0.0000000   0.6666667), wk =   0.0017778
        k(  681) = (   0.7333333  -0.2666667   1.0000000), wk =   0.0017778
        k(  682) = (   0.7000000  -0.2333333   0.9666667), wk =   0.0035556
        k(  683) = (   0.6666667  -0.2000000   0.9333333), wk =   0.0035556
        k(  684) = (   0.6333333  -0.1666667   0.9000000), wk =   0.0035556
        k(  685) = (   0.6000000  -0.1333333   0.8666667), wk =   0.0035556
        k(  686) = (   0.5666667  -0.1000000   0.8333333), wk =   0.0035556
        k(  687) = (   0.5333333  -0.0666667   0.8000000), wk =   0.0035556
        k(  688) = (   0.5000000  -0.0333333   0.7666667), wk =   0.0035556
        k(  689) = (   0.4666667   0.0000000   0.7333333), wk =   0.0017778
        k(  690) = (   0.7333333  -0.2000000   1.0000000), wk =   0.0017778
        k(  691) = (   0.7000000  -0.1666667   0.9666667), wk =   0.0035556
        k(  692) = (   0.6666667  -0.1333333   0.9333333), wk =   0.0035556
        k(  693) = (   0.6333333  -0.1000000   0.9000000), wk =   0.0035556
        k(  694) = (   0.6000000  -0.0666667   0.8666667), wk =   0.0035556
        k(  695) = (   0.5666667  -0.0333333   0.8333333), wk =   0.0035556
        k(  696) = (   0.5333333   0.0000000   0.8000000), wk =   0.0017778
        k(  697) = (   0.7333333  -0.1333333   1.0000000), wk =   0.0017778
        k(  698) = (   0.7000000  -0.1000000   0.9666667), wk =   0.0035556
        k(  699) = (   0.6666667  -0.0666667   0.9333333), wk =   0.0035556
        k(  700) = (   0.6333333  -0.0333333   0.9000000), wk =   0.0035556
        k(  701) = (   0.6000000   0.0000000   0.8666667), wk =   0.0017778
        k(  702) = (   0.7333333  -0.0666667   1.0000000), wk =   0.0017778
        k(  703) = (   0.7000000  -0.0333333   0.9666667), wk =   0.0035556
        k(  704) = (   0.6666667   0.0000000   0.9333333), wk =   0.0017778
        k(  705) = (  -0.2666667  -1.0000000   0.0000000), wk =   0.0008889
        k(  706) = (   0.6666667  -0.3333333   1.0000000), wk =   0.0017778
        k(  707) = (   0.6333333  -0.3000000   0.9666667), wk =   0.0035556
        k(  708) = (   0.6000000  -0.2666667   0.9333333), wk =   0.0035556
        k(  709) = (   0.5666667  -0.2333333   0.9000000), wk =   0.0035556
        k(  710) = (   0.5333333  -0.2000000   0.8666667), wk =   0.0035556
        k(  711) = (   0.5000000  -0.1666667   0.8333333), wk =   0.0017778
        k(  712) = (   0.6666667  -0.2666667   1.0000000), wk =   0.0017778
        k(  713) = (   0.6333333  -0.2333333   0.9666667), wk =   0.0035556
        k(  714) = (   0.6000000  -0.2000000   0.9333333), wk =   0.0035556
        k(  715) = (   0.5666667  -0.1666667   0.9000000), wk =   0.0035556
        k(  716) = (   0.5333333  -0.1333333   0.8666667), wk =   0.0035556
        k(  717) = (   0.5000000  -0.1000000   0.8333333), wk =   0.0035556
        k(  718) = (   0.4666667  -0.0666667   0.8000000), wk =   0.0035556
        k(  719) = (   0.4333333  -0.0333333   0.7666667), wk =   0.0035556
        k(  720) = (   0.4000000   0.0000000   0.7333333), wk =   0.0017778
        k(  721) = (   0.6666667  -0.2000000   1.0000000), wk =   0.0017778
        k(  722) = (   0.6333333  -0.1666667   0.9666667), wk =   0.0035556
        k(  723) = (   0.6000000  -0.1333333   0.9333333), wk =   0.0035556
        k(  724) = (   0.5666667  -0.1000000   0.9000000), wk =   0.0035556
        k(  725) = (   0.5333333  -0.0666667   0.8666667), wk =   0.0035556
        k(  726) = (   0.5000000  -0.0333333   0.8333333), wk =   0.0035556
        k(  727) = (   0.4666667   0.0000000   0.8000000), wk =   0.0017778
        k(  728) = (   0.6666667  -0.1333333   1.0000000), wk =   0.0017778
        k(  729) = (   0.6333333  -0.1000000   0.9666667), wk =   0.0035556
        k(  730) = (   0.6000000  -0.0666667   0.9333333), wk =   0.0035556
        k(  731) = (   0.5666667  -0.0333333   0.9000000), wk =   0.0035556
        k(  732) = (   0.5333333   0.0000000   0.8666667), wk =   0.0017778
        k(  733) = (   0.6666667  -0.0666667   1.0000000), wk =   0.0017778
        k(  734) = (   0.6333333  -0.0333333   0.9666667), wk =   0.0035556
        k(  735) = (   0.6000000   0.0000000   0.9333333), wk =   0.0017778
        k(  736) = (  -0.3333333  -1.0000000   0.0000000), wk =   0.0008889
        k(  737) = (   0.6000000  -0.2000000   1.0000000), wk =   0.0017778
        k(  738) = (   0.5666667  -0.1666667   0.9666667), wk =   0.0035556
        k(  739) = (   0.5333333  -0.1333333   0.9333333), wk =   0.0035556
        k(  740) = (   0.5000000  -0.1000000   0.9000000), wk =   0.0017778
        k(  741) = (   0.6000000  -0.1333333   1.0000000), wk =   0.0017778
        k(  742) = (   0.5666667  -0.1000000   0.9666667), wk =   0.0035556
        k(  743) = (   0.5333333  -0.0666667   0.9333333), wk =   0.0035556
        k(  744) = (   0.5000000  -0.0333333   0.9000000), wk =   0.0035556
        k(  745) = (   0.4666667   0.0000000   0.8666667), wk =   0.0017778
        k(  746) = (   0.6000000  -0.0666667   1.0000000), wk =   0.0017778
        k(  747) = (   0.5666667  -0.0333333   0.9666667), wk =   0.0035556
        k(  748) = (   0.5333333  -0.0000000   0.9333333), wk =   0.0017778
        k(  749) = (  -0.4000000  -1.0000000   0.0000000), wk =   0.0008889
        k(  750) = (   0.5333333  -0.0666667   1.0000000), wk =   0.0017778
        k(  751) = (   0.5000000  -0.0333333   0.9666667), wk =   0.0017778
        k(  752) = (  -0.4666667  -1.0000000   0.0000000), wk =   0.0008889

                       cryst. coord.
        k(    1) = (   0.0000000   0.0000000   0.0000000), wk =   0.0000741
        k(    2) = (   0.0000000   0.0000000   0.0333333), wk =   0.0005926
        k(    3) = (   0.0000000   0.0000000   0.0666667), wk =   0.0005926
        k(    4) = (   0.0000000   0.0000000   0.1000000), wk =   0.0005926
        k(    5) = (   0.0000000   0.0000000   0.1333333), wk =   0.0005926
        k(    6) = (   0.0000000   0.0000000   0.1666667), wk =   0.0005926
        k(    7) = (   0.0000000   0.0000000   0.2000000), wk =   0.0005926
        k(    8) = (   0.0000000   0.0000000   0.2333333), wk =   0.0005926
        k(    9) = (   0.0000000   0.0000000   0.2666667), wk =   0.0005926
        k(   10) = (   0.0000000   0.0000000   0.3000000), wk =   0.0005926
        k(   11) = (   0.0000000   0.0000000   0.3333333), wk =   0.0005926
        k(   12) = (   0.0000000   0.0000000   0.3666667), wk =   0.0005926
        k(   13) = (   0.0000000   0.0000000   0.4000000), wk =   0.0005926
        k(   14) = (   0.0000000   0.0000000   0.4333333), wk =   0.0005926
        k(   15) = (   0.0000000   0.0000000   0.4666667), wk =   0.0005926
        k(   16) = (   0.0000000   0.0000000  -0.5000000), wk =   0.0002963
        k(   17) = (   0.0000000   0.0333333   0.0333333), wk =   0.0004444
        k(   18) = (   0.0000000   0.0333333   0.0666667), wk =   0.0017778
        k(   19) = (   0.0000000   0.0333333   0.1000000), wk =   0.0017778
        k(   20) = (   0.0000000   0.0333333   0.1333333), wk =   0.0017778
        k(   21) = (   0.0000000   0.0333333   0.1666667), wk =   0.0017778
        k(   22) = (   0.0000000   0.0333333   0.2000000), wk =   0.0017778
        k(   23) = (   0.0000000   0.0333333   0.2333333), wk =   0.0017778
        k(   24) = (   0.0000000   0.0333333   0.2666667), wk =   0.0017778
        k(   25) = (   0.0000000   0.0333333   0.3000000), wk =   0.0017778
        k(   26) = (   0.0000000   0.0333333   0.3333333), wk =   0.0017778
        k(   27) = (   0.0000000   0.0333333   0.3666667), wk =   0.0017778
        k(   28) = (   0.0000000   0.0333333   0.4000000), wk =   0.0017778
        k(   29) = (   0.0000000   0.0333333   0.4333333), wk =   0.0017778
        k(   30) = (   0.0000000   0.0333333   0.4666667), wk =   0.0017778
        k(   31) = (   0.0000000   0.0333333  -0.5000000), wk =   0.0017778
        k(   32) = (   0.0000000   0.0333333  -0.4666667), wk =   0.0017778
        k(   33) = (   0.0000000   0.0333333  -0.4333333), wk =   0.0017778
        k(   34) = (   0.0000000   0.0333333  -0.4000000), wk =   0.0017778
        k(   35) = (   0.0000000   0.0333333  -0.3666667), wk =   0.0017778
        k(   36) = (   0.0000000   0.0333333  -0.3333333), wk =   0.0017778
        k(   37) = (   0.0000000   0.0333333  -0.3000000), wk =   0.0017778
        k(   38) = (   0.0000000   0.0333333  -0.2666667), wk =   0.0017778
        k(   39) = (   0.0000000   0.0333333  -0.2333333), wk =   0.0017778
        k(   40) = (   0.0000000   0.0333333  -0.2000000), wk =   0.0017778
        k(   41) = (   0.0000000   0.0333333  -0.1666667), wk =   0.0017778
        k(   42) = (   0.0000000   0.0333333  -0.1333333), wk =   0.0017778
        k(   43) = (   0.0000000   0.0333333  -0.1000000), wk =   0.0017778
        k(   44) = (   0.0000000   0.0333333  -0.0666667), wk =   0.0017778
        k(   45) = (   0.0000000   0.0333333  -0.0333333), wk =   0.0008889
        k(   46) = (   0.0000000   0.0666667   0.0666667), wk =   0.0004444
        k(   47) = (   0.0000000   0.0666667   0.1000000), wk =   0.0017778
        k(   48) = (   0.0000000   0.0666667   0.1333333), wk =   0.0017778
        k(   49) = (   0.0000000   0.0666667   0.1666667), wk =   0.0017778
        k(   50) = (   0.0000000   0.0666667   0.2000000), wk =   0.0017778
        k(   51) = (   0.0000000   0.0666667   0.2333333), wk =   0.0017778
        k(   52) = (   0.0000000   0.0666667   0.2666667), wk =   0.0017778
        k(   53) = (   0.0000000   0.0666667   0.3000000), wk =   0.0017778
        k(   54) = (   0.0000000   0.0666667   0.3333333), wk =   0.0017778
        k(   55) = (   0.0000000   0.0666667   0.3666667), wk =   0.0017778
        k(   56) = (   0.0000000   0.0666667   0.4000000), wk =   0.0017778
        k(   57) = (   0.0000000   0.0666667   0.4333333), wk =   0.0017778
        k(   58) = (   0.0000000   0.0666667   0.4666667), wk =   0.0017778
        k(   59) = (   0.0000000   0.0666667  -0.5000000), wk =   0.0017778
        k(   60) = (   0.0000000   0.0666667  -0.4666667), wk =   0.0017778
        k(   61) = (   0.0000000   0.0666667  -0.4333333), wk =   0.0017778
        k(   62) = (   0.0000000   0.0666667  -0.4000000), wk =   0.0017778
        k(   63) = (   0.0000000   0.0666667  -0.3666667), wk =   0.0017778
        k(   64) = (   0.0000000   0.0666667  -0.3333333), wk =   0.0017778
        k(   65) = (   0.0000000   0.0666667  -0.3000000), wk =   0.0017778
        k(   66) = (   0.0000000   0.0666667  -0.2666667), wk =   0.0017778
        k(   67) = (   0.0000000   0.0666667  -0.2333333), wk =   0.0017778
        k(   68) = (   0.0000000   0.0666667  -0.2000000), wk =   0.0017778
        k(   69) = (   0.0000000   0.0666667  -0.1666667), wk =   0.0017778
        k(   70) = (   0.0000000   0.0666667  -0.1333333), wk =   0.0017778
        k(   71) = (   0.0000000   0.0666667  -0.1000000), wk =   0.0017778
        k(   72) = (   0.0000000   0.0666667  -0.0666667), wk =   0.0008889
        k(   73) = (   0.0000000   0.1000000   0.1000000), wk =   0.0004444
        k(   74) = (   0.0000000   0.1000000   0.1333333), wk =   0.0017778
        k(   75) = (   0.0000000   0.1000000   0.1666667), wk =   0.0017778
        k(   76) = (   0.0000000   0.1000000   0.2000000), wk =   0.0017778
        k(   77) = (   0.0000000   0.1000000   0.2333333), wk =   0.0017778
        k(   78) = (   0.0000000   0.1000000   0.2666667), wk =   0.0017778
        k(   79) = (   0.0000000   0.1000000   0.3000000), wk =   0.0017778
        k(   80) = (   0.0000000   0.1000000   0.3333333), wk =   0.0017778
        k(   81) = (   0.0000000   0.1000000   0.3666667), wk =   0.0017778
        k(   82) = (   0.0000000   0.1000000   0.4000000), wk =   0.0017778
        k(   83) = (   0.0000000   0.1000000   0.4333333), wk =   0.0017778
        k(   84) = (   0.0000000   0.1000000   0.4666667), wk =   0.0017778
        k(   85) = (   0.0000000   0.1000000  -0.5000000), wk =   0.0017778
        k(   86) = (   0.0000000   0.1000000  -0.4666667), wk =   0.0017778
        k(   87) = (   0.0000000   0.1000000  -0.4333333), wk =   0.0017778
        k(   88) = (   0.0000000   0.1000000  -0.4000000), wk =   0.0017778
        k(   89) = (   0.0000000   0.1000000  -0.3666667), wk =   0.0017778
        k(   90) = (   0.0000000   0.1000000  -0.3333333), wk =   0.0017778
        k(   91) = (   0.0000000   0.1000000  -0.3000000), wk =   0.0017778
        k(   92) = (   0.0000000   0.1000000  -0.2666667), wk =   0.0017778
        k(   93) = (   0.0000000   0.1000000  -0.2333333), wk =   0.0017778
        k(   94) = (   0.0000000   0.1000000  -0.2000000), wk =   0.0017778
        k(   95) = (   0.0000000   0.1000000  -0.1666667), wk =   0.0017778
        k(   96) = (   0.0000000   0.1000000  -0.1333333), wk =   0.0017778
        k(   97) = (   0.0000000   0.1000000  -0.1000000), wk =   0.0008889
        k(   98) = (   0.0000000   0.1333333   0.1333333), wk =   0.0004444
        k(   99) = (   0.0000000   0.1333333   0.1666667), wk =   0.0017778
        k(  100) = (   0.0000000   0.1333333   0.2000000), wk =   0.0017778
        k(  101) = (   0.0000000   0.1333333   0.2333333), wk =   0.0017778
        k(  102) = (   0.0000000   0.1333333   0.2666667), wk =   0.0017778
        k(  103) = (   0.0000000   0.1333333   0.3000000), wk =   0.0017778
        k(  104) = (   0.0000000   0.1333333   0.3333333), wk =   0.0017778
[...]
     0.0000   0.0000   0.0000   0.0000   0.0000   0.0000   0.0000

          k = 0.6667-0.3333 1.0000 (  1300 PWs)   bands (ev):

    -5.7899  -0.0251   1.9043   2.9819   8.2285   9.1193   9.7271  12.4420
    13.7417  15.2827  17.5983  18.4132  18.6793  20.3283  21.1193

     occupation numbers 
     1.0000   1.0000   1.0000   1.0000   0.0000   0.0000   0.0000   0.0000
     0.0000   0.0000   0.0000   0.0000   0.0000   0.0000   0.0000

          k = 0.6333-0.3000 0.9667 (  1309 PWs)   bands (ev):

    -5.6783  -0.1734   1.7325   2.8601   8.3483   9.3106   9.6812  12.6457
    13.7763  14.9402  17.9123  18.4938  19.1027  20.2008  21.4163

     occupation numbers 
     1.0000   1.0000   1.0000   1.0000   0.0000   0.0000   0.0000   0.0000
     0.0000   0.0000   0.0000   0.0000   0.0000   0.0000   0.0000

          k = 0.6000-0.2667 0.9333 (  1308 PWs)   bands (ev):

    -5.5802  -0.3054   1.6034   2.7542   8.4101   9.3331   9.9435  12.7272
    13.5110  14.9928  17.9406  18.4692  19.6506  20.2590  21.7204

     occupation numbers 
     1.0000   1.0000   1.0000   1.0000   0.0000   0.0000   0.0000   0.0000
     0.0000   0.0000   0.0000   0.0000   0.0000   0.0000   0.0000

          k = 0.5667-0.2333 0.9000 (  1301 PWs)   bands (ev):

    -5.5029  -0.4104   1.5148   2.6727   8.4442   9.2608  10.3987  12.6643
    13.0855  15.3511  17.7919  18.2683  20.1913  20.6299  21.9958

     occupation numbers 
     1.0000   1.0000   1.0000   1.0000   0.0000   0.0000   0.0000   0.0000
     0.0000   0.0000   0.0000   0.0000   0.0000   0.0000   0.0000

          k = 0.5333-0.2000 0.8667 (  1301 PWs)   bands (ev):

    -5.4533  -0.4785   1.4634   2.6214   8.4641   9.2024  10.8943  12.2832
    12.9209  15.7562  17.5114  18.1080  20.6081  21.1239  22.2455

     occupation numbers 
     1.0000   1.0000   1.0000   1.0000   0.0000   0.0000   0.0000   0.0000
     0.0000   0.0000   0.0000   0.0000   0.0000   0.0000   0.0000

          k = 0.5000-0.1667 0.8333 (  1302 PWs)   bands (ev):

    -5.4362  -0.5021   1.4467   2.6039   8.4710   9.1809  11.2099  11.9674
    12.9009  15.9625  17.3320  18.0637  20.7584  21.4280  22.3747

     occupation numbers 
     1.0000   1.0000   1.0000   1.0000   0.0000   0.0000   0.0000   0.0000
     0.0000   0.0000   0.0000   0.0000   0.0000   0.0000   0.0000

          k = 0.6667-0.2667 1.0000 (  1307 PWs)   bands (ev):

    -5.6298  -0.2108   1.7882   2.6743   8.0581   8.9702  10.0743  13.0740
    13.9508  15.2105  18.1825  18.5724  18.9941  20.0876  21.1555

     occupation numbers 
     1.0000   1.0000   1.0000   1.0000   0.0000   0.0000   0.0000   0.0000
     0.0000   0.0000   0.0000   0.0000   0.0000   0.0000   0.0000

          k = 0.6333-0.2333 0.9667 (  1305 PWs)   bands (ev):

    -5.5353  -0.3145   1.6334   2.5561   8.2075   9.2388   9.9694  13.2583
    13.5836  15.2509  18.3497  18.5021  19.4093  20.2970  21.2994

     occupation numbers 
     1.0000   1.0000   1.0000   1.0000   0.0000   0.0000   0.0000   0.0000
     0.0000   0.0000   0.0000   0.0000   0.0000   0.0000   0.0000

          k = 0.6000-0.2000 0.9333 (  1301 PWs)   bands (ev):

    -5.4587  -0.3964   1.5088   2.4682   8.3040   9.5053  10.0025  12.9263
    13.4522  15.5624  17.9566  18.6010  19.9478  20.5776  21.6465

     occupation numbers 
     1.0000   1.0000   1.0000   1.0000   0.0000   0.0000   0.0000   0.0000
     0.0000   0.0000   0.0000   0.0000   0.0000   0.0000   0.0000

          k = 0.5667-0.1667 0.9000 (  1301 PWs)   bands (ev):

    -5.4064  -0.4503   1.4162   2.4177   8.3790   9.5429  10.3540  12.3396
    13.4698  15.9351  17.5455  18.6129  20.3630  20.9793  22.1080

     occupation numbers 
     1.0000   1.0000   1.0000   1.0000   0.0000   0.0000   0.0000   0.0000
     0.0000   0.0000   0.0000   0.0000   0.0000   0.0000   0.0000

          k = 0.5333-0.1333 0.8667 (  1300 PWs)   bands (ev):

    -5.3828  -0.4719   1.3581   2.4072   8.4479   9.4916  10.8141  11.7993
    13.4651  16.0830  17.3782  18.6122  20.5338  21.3895  22.3957

     occupation numbers 
     1.0000   1.0000   1.0000   1.0000   0.0000   0.0000   0.0000   0.0000
     0.0000   0.0000   0.0000   0.0000   0.0000   0.0000   0.0000

          k = 0.5000-0.1000 0.8333 (  1303 PWs)   bands (ev):

    -5.3903  -0.4599   1.3385   2.4364   8.5120   9.4463  10.8776  11.7362
    13.4389  15.8053  17.6477  18.6224  20.5103  21.2337  22.3240

     occupation numbers 
     1.0000   1.0000   1.0000   1.0000   0.0000   0.0000   0.0000   0.0000
     0.0000   0.0000   0.0000   0.0000   0.0000   0.0000   0.0000

          k = 0.4667-0.0667 0.8000 (  1305 PWs)   bands (ev):

    -5.4280  -0.4174   1.3622   2.5021   8.5620   9.4284  10.4294  12.2526
    13.3815  15.3730  18.0748  18.6402  20.1711  20.9388  21.8716

     occupation numbers 
     1.0000   1.0000   1.0000   1.0000   0.0000   0.0000   0.0000   0.0000
     0.0000   0.0000   0.0000   0.0000   0.0000   0.0000   0.0000

          k = 0.4333-0.0333 0.7667 (  1304 PWs)   bands (ev):

    -5.4924  -0.3506   1.4343   2.5994   8.5771   9.4416   9.9730  12.8397
    13.2674  14.9930  18.4363  18.6273  19.6193  20.8041  21.3920

     occupation numbers 
     1.0000   1.0000   1.0000   1.0000   0.0000   0.0000   0.0000   0.0000
     0.0000   0.0000   0.0000   0.0000   0.0000   0.0000   0.0000

          k = 0.4000 0.0000 0.7333 (  1311 PWs)   bands (ev):

    -5.5780  -0.2672   1.5578   2.7217   8.5190   9.4364   9.6709  12.9981
    13.4194  14.8061  18.3735  18.6548  19.2075  20.5304  21.2562

     occupation numbers 
     1.0000   1.0000   1.0000   1.0000   0.0000   0.0000   0.0000   0.0000
     0.0000   0.0000   0.0000   0.0000   0.0000   0.0000   0.0000

          k = 0.6667-0.2000 1.0000 (  1307 PWs)   bands (ev):

    -5.4882  -0.3628   1.7116   2.3996   7.9176   8.8339  10.4926  13.5964
    13.7609  15.5712  18.1872  18.8328  19.2959  20.2934  21.1860

     occupation numbers 
     1.0000   1.0000   1.0000   1.0000   0.0000   0.0000   0.0000   0.0000
     0.0000   0.0000   0.0000   0.0000   0.0000   0.0000   0.0000

          k = 0.6333-0.1667 0.9667 (  1303 PWs)   bands (ev):

    -5.4157  -0.4221   1.5738   2.2925   8.0931   9.1383  10.3745  13.0452
    13.9234  15.7987  17.8987  18.9891  19.6354  20.6924  21.4295

     occupation numbers 
     1.0000   1.0000   1.0000   1.0000   0.0000   0.0000   0.0000   0.0000
     0.0000   0.0000   0.0000   0.0000   0.0000   0.0000   0.0000

          k = 0.6000-0.1333 0.9333 (  1302 PWs)   bands (ev):

    -5.3642  -0.4574   1.4496   2.2357   8.2170   9.5187  10.3135  12.4148
    14.0152  16.1116  17.5207  19.0390  19.9817  21.0794  21.9396

     occupation numbers 
     1.0000   1.0000   1.0000   1.0000   0.0000   0.0000   0.0000   0.0000
     0.0000   0.0000   0.0000   0.0000   0.0000   0.0000   0.0000

          k = 0.5667-0.1000 0.9000 (  1296 PWs)   bands (ev):

    -5.3378  -0.4683   1.3497   2.2297   8.3206   9.7880  10.4434  11.8083
    14.0263  16.2016  17.3915  19.0750  20.1468  21.5200  22.2244

     occupation numbers 
     1.0000   1.0000   1.0000   1.0000   0.0000   0.0000   0.0000   0.0000
     0.0000   0.0000   0.0000   0.0000   0.0000   0.0000   0.0000

          k = 0.5333-0.0667 0.8667 (  1294 PWs)   bands (ev):

    -5.3388  -0.4573   1.2877   2.2696   8.4196   9.8188  10.7503  11.3614
    13.9767  15.8893  17.6844  19.1114  20.1445  21.4106  22.3532

     occupation numbers 
     1.0000   1.0000   1.0000   1.0000   0.0000   0.0000   0.0000   0.0000
     0.0000   0.0000   0.0000   0.0000   0.0000   0.0000   0.0000

          k = 0.5000-0.0333 0.8333 (  1303 PWs)   bands (ev):

    -5.3670  -0.4298   1.2762   2.3490   8.5136   9.7587  10.5177  11.6445
    13.8523  15.4777  18.0841  19.1511  19.9067  21.1038  22.1967

     occupation numbers 
     1.0000   1.0000   1.0000   1.0000   0.0000   0.0000   0.0000   0.0000
     0.0000   0.0000   0.0000   0.0000   0.0000   0.0000   0.0000

          k = 0.4667 0.0000 0.8000 (  1303 PWs)   bands (ev):

    -5.4196  -0.3926   1.3240   2.4614   8.5847   9.6377  10.1477  12.2377
    13.6138  15.1554  18.3799  19.0683  19.5813  21.0750  21.5942

     occupation numbers 
     1.0000   1.0000   1.0000   1.0000   0.0000   0.0000   0.0000   0.0000
     0.0000   0.0000   0.0000   0.0000   0.0000   0.0000   0.0000

          k = 0.6667-0.1333 1.0000 (  1309 PWs)   bands (ev):

    -5.3760  -0.4767   1.6758   2.1727   7.8136   8.7338  10.9479  13.1557
    14.2939  16.0927  17.6869  18.9624  19.7726  20.7672  21.5038

     occupation numbers 
     1.0000   1.0000   1.0000   1.0000   0.0000   0.0000   0.0000   0.0000
     0.0000   0.0000   0.0000   0.0000   0.0000   0.0000   0.0000

          k = 0.6333-0.1000 0.9667 (  1304 PWs)   bands (ev):

    -5.3292  -0.4949   1.5516   2.0889   8.0138   9.0657  10.8221  12.5151
    14.4766  16.3167  17.4227  18.9612  20.1154  21.2283  21.8565

     occupation numbers 
     1.0000   1.0000   1.0000   1.0000   0.0000   0.0000   0.0000   0.0000
     0.0000   0.0000   0.0000   0.0000   0.0000   0.0000   0.0000

          k = 0.6000-0.0667 0.9333 (  1302 PWs)   bands (ev):

    -5.3041  -0.4919   1.4211   2.0803   8.1619   9.4919  10.7272  11.8901
    14.5199  16.3491  17.3449  19.0245  20.2908  21.6566  22.0622

     occupation numbers 
     1.0000   1.0000   1.0000   1.0000   0.0000   0.0000   0.0000   0.0000
     0.0000   0.0000   0.0000   0.0000   0.0000   0.0000   0.0000

          k = 0.5667-0.0333 0.9000 (  1297 PWs)   bands (ev):

    -5.3023  -0.4739   1.3160   2.1296   8.2886   9.8882  10.7130  11.3353
    14.4405  16.0395  17.6188  19.1421  20.2596  21.4906  22.2897

     occupation numbers 
     1.0000   1.0000   1.0000   1.0000   0.0000   0.0000   0.0000   0.0000
     0.0000   0.0000   0.0000   0.0000   0.0000   0.0000   0.0000

          k = 0.5333 0.0000 0.8667 (  1301 PWs)   bands (ev):

    -5.3240  -0.4501   1.2624   2.2223   8.4080   9.9975  10.7096  11.1654
    14.2224  15.7005  17.9201  19.2928  20.0008  21.1903  22.5668

     occupation numbers 
     1.0000   1.0000   1.0000   1.0000   0.0000   0.0000   0.0000   0.0000
     0.0000   0.0000   0.0000   0.0000   0.0000   0.0000   0.0000

          k = 0.6667-0.0667 1.0000 (  1301 PWs)   bands (ev):

    -5.3035  -0.5478   1.6759   2.0100   7.7500   8.6734  11.4138  12.6446
    14.7744  16.5602  17.2236  18.7086  20.4650  21.3650  21.8636

     occupation numbers 
     1.0000   1.0000   1.0000   1.0000   0.0000   0.0000   0.0000   0.0000
     0.0000   0.0000   0.0000   0.0000   0.0000   0.0000   0.0000

          k = 0.6333-0.0333 0.9667 (  1300 PWs)   bands (ev):

    -5.2836  -0.5316   1.5532   1.9711   7.9734   9.0287  11.2525  12.0363
    14.8652  16.5622  17.1997  18.7083  20.7491  21.7435  21.9179

     occupation numbers 
     1.0000   1.0000   1.0000   1.0000   0.0000   0.0000   0.0000   0.0000
     0.0000   0.0000   0.0000   0.0000   0.0000   0.0000   0.0000

          k = 0.6000 0.0000 0.9333 (  1296 PWs)   bands (ev):

    -5.2833  -0.5029   1.4138   2.0248   8.1431   9.4800  11.0265  11.5551
    14.7527  16.2870  17.4322  18.8762  20.6589  21.6124  22.1116

     occupation numbers 
     1.0000   1.0000   1.0000   1.0000   0.0000   0.0000   0.0000   0.0000
     0.0000   0.0000   0.0000   0.0000   0.0000   0.0000   0.0000

          k =-0.3333-1.0000 0.0000 (  1300 PWs)   bands (ev):

    -5.2784  -0.5720   1.6861   1.9448   7.7286   8.6532  11.7219  12.3183
    14.9859  16.7645  17.0211  18.5519  20.9447  21.6235  21.8759

     occupation numbers 
     1.0000   1.0000   1.0000   1.0000   0.0000   0.0000   0.0000   0.0000
     0.0000   0.0000   0.0000   0.0000   0.0000   0.0000   0.0000

          k = 0.6000-0.2000 1.0000 (  1294 PWs)   bands (ev):

    -5.4536  -0.3736   1.4973   2.4125   8.4349   9.4453   9.8681  12.9477
    13.6562  15.3548  18.2913  18.9583  19.3943  20.8829  21.1586

     occupation numbers 
     1.0000   1.0000   1.0000   1.0000   0.0000   0.0000   0.0000   0.0000
     0.0000   0.0000   0.0000   0.0000   0.0000   0.0000   0.0000

          k = 0.5667-0.1667 0.9667 (  1298 PWs)   bands (ev):

    -5.3903  -0.4188   1.3999   2.3000   8.5687   9.6329   9.9587  12.3146
    13.8860  15.6369  17.9908  19.0583  19.7452  21.0743  21.6577

     occupation numbers 
     1.0000   1.0000   1.0000   1.0000   0.0000   0.0000   0.0000   0.0000
     0.0000   0.0000   0.0000   0.0000   0.0000   0.0000   0.0000

          k = 0.5333-0.1333 0.9333 (  1303 PWs)   bands (ev):

    -5.3501  -0.4475   1.3417   2.2285   8.6325   9.6180  10.3758  11.7073
    13.9961  16.0035  17.5971  19.0539  20.0596  21.3618  22.2092

     occupation numbers 
     1.0000   1.0000   1.0000   1.0000   0.0000   0.0000   0.0000   0.0000
     0.0000   0.0000   0.0000   0.0000   0.0000   0.0000   0.0000

          k = 0.5000-0.1000 0.9000 (  1302 PWs)   bands (ev):

    -5.3363  -0.4573   1.3225   2.2040   8.6515   9.6018  10.7075  11.3249
    14.0269  16.2133  17.3772  19.0512  20.1539  21.6990  22.1757

     occupation numbers 
     1.0000   1.0000   1.0000   1.0000   0.0000   0.0000   0.0000   0.0000
     0.0000   0.0000   0.0000   0.0000   0.0000   0.0000   0.0000

          k = 0.6000-0.1333 1.0000 (  1303 PWs)   bands (ev):

    -5.3568  -0.4486   1.4829   2.1453   8.3589   9.3652  10.2604  12.4026
    14.2681  15.9652  17.7630  19.0844  19.7989  21.2232  21.5970

     occupation numbers 
     1.0000   1.0000   1.0000   1.0000   0.0000   0.0000   0.0000   0.0000
     0.0000   0.0000   0.0000   0.0000   0.0000   0.0000   0.0000

          k = 0.5667-0.1000 0.9667 (  1302 PWs)   bands (ev):

    -5.3176  -0.4610   1.4095   2.0536   8.5375   9.6838  10.2174  11.7655
    14.4670  16.2308  17.4828  19.0387  20.1036  21.4926  22.1606

     occupation numbers 
     1.0000   1.0000   1.0000   1.0000   0.0000   0.0000   0.0000   0.0000
     0.0000   0.0000   0.0000   0.0000   0.0000   0.0000   0.0000

          k = 0.5333-0.0667 0.9333 (  1303 PWs)   bands (ev):

    -5.3011  -0.4611   1.3546   2.0285   8.6474   9.8596  10.4178  11.1956
    14.5236  16.3656  17.3287  19.0442  20.2337  21.8783  22.0263

     occupation numbers 
     1.0000   1.0000   1.0000   1.0000   0.0000   0.0000   0.0000   0.0000
     0.0000   0.0000   0.0000   0.0000   0.0000   0.0000   0.0000

          k = 0.5000-0.0333 0.9000 (  1305 PWs)   bands (ev):

    -5.3085  -0.4521   1.3273   2.0680   8.7065   9.8540  10.4488  11.1298
    14.4558  16.1361  17.5496  19.0997  20.1503  21.4924  22.4342

     occupation numbers 
     1.0000   1.0000   1.0000   1.0000   0.0000   0.0000   0.0000   0.0000
     0.0000   0.0000   0.0000   0.0000   0.0000   0.0000   0.0000

          k = 0.4667 0.0000 0.8667 (  1307 PWs)   bands (ev):

    -5.3391  -0.4373   1.3398   2.1624   8.6974   9.8024  10.0797  11.6800
    14.2469  15.8326  17.8414  19.1941  19.8611  21.2328  22.1854

     occupation numbers 
     1.0000   1.0000   1.0000   1.0000   0.0000   0.0000   0.0000   0.0000
     0.0000   0.0000   0.0000   0.0000   0.0000   0.0000   0.0000

          k = 0.6000-0.0667 1.0000 (  1300 PWs)   bands (ev):

    -5.2949  -0.4930   1.5079   1.9439   8.3091   9.3121  10.6956  11.8723
    14.7731  16.4979  17.2733  18.7887  20.4746  21.6560  22.1419

     occupation numbers 
     1.0000   1.0000   1.0000   1.0000   0.0000   0.0000   0.0000   0.0000
     0.0000   0.0000   0.0000   0.0000   0.0000   0.0000   0.0000

          k = 0.5667-0.0333 0.9667 (  1298 PWs)   bands (ev):

    -5.2796  -0.4808   1.4416   1.8986   8.5162   9.6705  10.5997  11.2786
    14.8722  16.5734  17.1915  18.7560  20.6799  21.7241  22.2144

     occupation numbers 
     1.0000   1.0000   1.0000   1.0000   0.0000   0.0000   0.0000   0.0000
     0.0000   0.0000   0.0000   0.0000   0.0000   0.0000   0.0000

          k = 0.5333-0.0000 0.9333 (  1302 PWs)   bands (ev):

    -5.2844  -0.4648   1.3680   1.9507   8.6479   9.9631  10.5706  10.8669
    14.7644  16.3575  17.3802  18.8800  20.5326  21.5789  22.3464

     occupation numbers 
     1.0000   1.0000   1.0000   1.0000   0.0000   0.0000   0.0000   0.0000
     0.0000   0.0000   0.0000   0.0000   0.0000   0.0000   0.0000

          k =-0.4000-1.0000 0.0000 (  1302 PWs)   bands (ev):

    -5.2736  -0.5077   1.5332   1.8586   8.2920   9.2940  11.0010  11.5346
    14.9948  16.7589  17.0298  18.6127  20.9641  21.6154  22.3414

     occupation numbers 
     1.0000   1.0000   1.0000   1.0000   0.0000   0.0000   0.0000   0.0000
     0.0000   0.0000   0.0000   0.0000   0.0000   0.0000   0.0000

          k = 0.5333-0.0667 1.0000 (  1301 PWs)   bands (ev):

    -5.2883  -0.4617   1.4002   1.9230   8.7429   9.9558  10.1917  11.1532
    14.7711  16.4296  17.3265  18.8494  20.4688  21.6122  22.4419

     occupation numbers 
     1.0000   1.0000   1.0000   1.0000   0.0000   0.0000   0.0000   0.0000
     0.0000   0.0000   0.0000   0.0000   0.0000   0.0000   0.0000

          k = 0.5000-0.0333 0.9667 (  1306 PWs)   bands (ev):

    -5.2784  -0.4617   1.4017   1.8737   8.8082  10.0563  10.3861  10.7390
    14.8751  16.5780  17.1885  18.7733  20.6470  21.6835  22.2750

     occupation numbers 
     1.0000   1.0000   1.0000   1.0000   0.0000   0.0000   0.0000   0.0000
     0.0000   0.0000   0.0000   0.0000   0.0000   0.0000   0.0000

          k =-0.4667-1.0000 0.0000 (  1312 PWs)   bands (ev):

    -5.2711  -0.4694   1.4484   1.8135   8.7531   9.9598  10.4605  10.7974
    15.0008  16.7571  17.0350  18.6480  20.9132  21.5347  22.5216

     occupation numbers 
     1.0000   1.0000   1.0000   1.0000   0.0000   0.0000   0.0000   0.0000
     0.0000   0.0000   0.0000   0.0000   0.0000   0.0000   0.0000

     highest occupied, lowest unoccupied level (ev):     4.5964    5.9943

     Writing output data file run_output/AlAs.save/

     init_run     :      0.10s CPU      0.11s WALL (       1 calls)
     electrons    :     14.33s CPU     15.04s WALL (       1 calls)

     Called by init_run:
     wfcinit      :      0.00s CPU      0.00s WALL (       1 calls)
     wfcinit:atom :      0.00s CPU      0.00s WALL (     108 calls)
     wfcinit:wfcr :      0.43s CPU      0.43s WALL (     108 calls)
     potinit      :      0.00s CPU      0.01s WALL (       1 calls)
     hinit0       :      0.01s CPU      0.01s WALL (       1 calls)

     Called by electrons:
     c_bands      :     14.31s CPU     14.96s WALL (       1 calls)
     v_of_rho     :      0.00s CPU      0.00s WALL (       1 calls)
     v_h          :      0.00s CPU      0.00s WALL (       1 calls)
     v_xc         :      0.00s CPU      0.00s WALL (       1 calls)

     Called by c_bands:
     init_us_2    :      0.00s CPU      0.00s WALL (     108 calls)
     ccgdiagg     :      9.75s CPU     10.33s WALL (     246 calls)
     wfcrot       :      0.96s CPU      0.99s WALL (     246 calls)

     Called by sum_band:

     Called by *cgdiagg:
     h_psi        :      8.07s CPU      8.54s WALL (   34239 calls)

     Called by h_psi:
     h_psi:calbec :      0.47s CPU      0.50s WALL (   34239 calls)
     vloc_psi     :      7.30s CPU      7.71s WALL (   34239 calls)
     add_vuspsi   :      0.08s CPU      0.09s WALL (   34239 calls)
     hs_1psi      :      7.60s CPU      8.05s WALL (   33993 calls)
     s_1psi       :      0.47s CPU      0.49s WALL (   33993 calls)

     General routines
     calbec       :      0.70s CPU      0.75s WALL (   68232 calls)
     fft          :      0.00s CPU      0.00s WALL (       3 calls)
     fftw         :      6.01s CPU      6.35s WALL (   75366 calls)
     davcio       :      0.00s CPU      0.01s WALL (     216 calls)

     Parallel routines
     fft_scatt_xy :      0.95s CPU      1.00s WALL (   75369 calls)
     fft_scatt_yz :      1.97s CPU      2.09s WALL (   75369 calls)

     PWSCF        :     14.93s CPU     19.02s WALL


   This run was terminated on:  10:33:48   6Oct2021            

=------------------------------------------------------------------------------=
   JOB DONE.
=------------------------------------------------------------------------------=
