
     Program BANDS v.6.7MaX starts on  6Oct2021 at 10:31:37 

     This program is part of the open-source Quantum ESPRESSO suite
     for quantum simulation of materials; please cite
         "P. Giannozzi et al., J. Phys.:Condens. Matter 21 395502 (2009);
         "P. Giannozzi et al., J. Phys.:Condens. Matter 29 465901 (2017);
          URL http://www.quantum-espresso.org", 
     in publications or presentations arising from this work. More details at
     http://www.quantum-espresso.org/quote

     Parallel version (MPI), running on    84 processors

     MPI processes distributed on     3 nodes
     R & G space division:  proc/nbgrp/npool/nimage =      84

     Reading xml data from directory:

     run_output/AlAs.save/

     IMPORTANT: XC functional enforced from input :
     Exchange-correlation= PZ
                           (   1   1   0   0   0   0   0)
     Any further DFT definition will be discarded
     Please, verify this is what you really want


     Parallelization info
     --------------------
     sticks:   dense  smooth     PW     G-vecs:    dense   smooth      PW
     Min           7       7      2                  122      122      20
     Max           8       8      3                  127      127      24
     Sum         637     637    199                10417    10417    1807

     Reading collected, re-writing distributed wavefunctions
     high-symmetry point:  0.0000 0.0000 0.0000   x coordinate   0.0000
     high-symmetry point: -1.0000 0.0000 0.0000   x coordinate   1.0000
     high-symmetry point: -1.0000 0.2500 0.2500   x coordinate   1.3536
     high-symmetry point: -0.7500 0.7500 0.0000   x coordinate   1.3536
     high-symmetry point:  0.0000 0.0000 0.0000   x coordinate   2.4142
     high-symmetry point: -0.5000 0.5000 0.5000   x coordinate   3.2802
     high-symmetry point: -1.0000 0.5000 0.0000   x coordinate   3.9873
     high-symmetry point: -1.0000 0.0000 0.0000   x coordinate   4.4873

     Plottable bands (eV) written to file bands_AlAs.gnu
     Bands written to file bands_AlAs

 **************************************************************************

                    xk=(   0.00000,   0.00000,   0.00000  )

     point group T_d (-43m) 
     there are  5 classes
     the character table:

       E     8C3   3C2   6S4   6s_d 
A_1    1.00  1.00  1.00  1.00  1.00
A_2    1.00  1.00  1.00 -1.00 -1.00
E      2.00 -1.00  2.00  0.00  0.00
T_1    3.00  0.00 -1.00  1.00 -1.00
T_2    3.00  0.00 -1.00 -1.00  1.00

     the symmetry operations in each class and the name of the first element:

     E        1
                                                                 
     8C3      5    7    8    6   12    9   10   11
                                                                 
     3C2      2    3    4
                                                                 
     6S4     15   16   20   19   23   24
                                                                 
     6s_d    13   14   17   18   21   22
                                                                 

     Band symmetry, T_d (-43m)  point group:

     e(  1 -  1) =     -7.23955  eV     1   --> A_1  G_1  P_1  
     e(  2 -  4) =      4.59639  eV     3   --> T_2  G_15 P_4  
     e(  5 -  5) =      6.72607  eV     1   --> A_1  G_1  P_1  
     e(  6 -  8) =      8.89666  eV     3   --> T_2  G_15 P_4  
     e(  9 -  9) =     13.38866  eV     1   --> A_1  G_1  P_1  
     e( 10 - 11) =     13.62115  eV     2   --> E    G_12 P_3  
     e( 12 - 14) =     16.02316  eV     3   --> T_2  G_15 P_4  
     e( 15 - 15) =     19.36823  eV     1   --> A_1  G_1  P_1  

 **************************************************************************

 **************************************************************************

                    xk=(  -0.02000,   0.00000,   0.00000  )

     point group C_2v (mm2) 
     there are  4 classes
     the character table:

       E     C2    s_v   s_v' 
A_1    1.00  1.00  1.00  1.00
A_2    1.00  1.00 -1.00 -1.00
B_1    1.00 -1.00  1.00 -1.00
B_2    1.00 -1.00 -1.00  1.00

     the symmetry operations in each class and the name of the first element:

     E        1
                                                                 
     C2       2
                                                                 
     s_v      3
                                                                 
     s_v'     4
                                                                 

     Band symmetry, C_2v (mm2)  point group:

     e(  1 -  1) =     -7.23842  eV     1   --> A_1  D_1  S_1  
     e(  2 -  2) =      4.58105  eV     1   --> A_1  D_1  S_1  
     e(  3 -  4) =      4.59257  eV     2   --> B_1  D_3  S_3  
     e(  3 -  4) =      4.59257  eV     2   --> B_2  D_4  S_4  
     e(  5 -  5) =      6.74103  eV     1   --> A_1  D_1  S_1  
     e(  6 -  6) =      8.89133  eV     1   --> A_1  D_1  S_1  
     e(  7 -  8) =      8.90239  eV     2   --> B_1  D_3  S_3  
     e(  7 -  8) =      8.90239  eV     2   --> B_2  D_4  S_4  
     e(  9 -  9) =     13.39639  eV     1   --> A_1  D_1  S_1  
     e( 10 - 10) =     13.60099  eV     1   --> A_1  D_1  S_1  
     e( 11 - 11) =     13.62297  eV     1   --> A_2  D_2  S_2  
     e( 12 - 13) =     16.02625  eV     2   --> B_1  D_3  S_3  
     e( 12 - 13) =     16.02625  eV     2   --> B_2  D_4  S_4  
     e( 14 - 14) =     16.03798  eV     1   --> A_1  D_1  S_1  
     e( 15 - 15) =     19.38168  eV     1   --> A_1  D_1  S_1  

 **************************************************************************

 **************************************************************************

                    xk=(  -0.04000,   0.00000,   0.00000  )

     Band symmetry, C_2v (mm2)  point group:

     e(  1 -  1) =     -7.23450  eV     1   --> A_1  D_1  S_1  
     e(  2 -  2) =      4.53653  eV     1   --> A_1  D_1  S_1  
     e(  3 -  4) =      4.58126  eV     2   --> B_1  D_3  S_3  
     e(  3 -  4) =      4.58126  eV     2   --> B_2  D_4  S_4  
     e(  5 -  5) =      6.78774  eV     1   --> A_1  D_1  S_1  
     e(  6 -  6) =      8.87553  eV     1   --> A_1  D_1  S_1  
     e(  7 -  8) =      8.91956  eV     2   --> B_1  D_3  S_3  
     e(  7 -  8) =      8.91956  eV     2   --> B_2  D_4  S_4  
     e(  9 -  9) =     13.41872  eV     1   --> A_1  D_1  S_1  
     e( 10 - 10) =     13.54333  eV     1   --> A_1  D_1  S_1  
     e( 11 - 11) =     13.62845  eV     1   --> A_2  D_2  S_2  
     e( 12 - 13) =     16.03551  eV     2   --> B_1  D_3  S_3  
     e( 12 - 13) =     16.03551  eV     2   --> B_2  D_4  S_4  
     e( 14 - 14) =     16.08060  eV     1   --> A_1  D_1  S_1  
     e( 15 - 15) =     19.42254  eV     1   --> A_1  D_1  S_1  

 **************************************************************************

 **************************************************************************

                    xk=(  -0.06000,   0.00000,   0.00000  )

     Band symmetry, C_2v (mm2)  point group:

     e(  1 -  1) =     -7.22790  eV     1   --> A_1  D_1  S_1  
     e(  2 -  2) =      4.46635  eV     1   --> A_1  D_1  S_1  
     e(  3 -  4) =      4.56265  eV     2   --> B_1  D_3  S_3  
     e(  3 -  4) =      4.56265  eV     2   --> B_2  D_4  S_4  
     e(  5 -  5) =      6.86166  eV     1   --> A_1  D_1  S_1  
     e(  6 -  6) =      8.84960  eV     1   --> A_1  D_1  S_1  
     e(  7 -  8) =      8.94794  eV     2   --> B_1  D_3  S_3  
     e(  7 -  8) =      8.94794  eV     2   --> B_2  D_4  S_4  
     e(  9 -  9) =     13.42909  eV     1   --> A_1  D_1  S_1  
     e( 10 - 10) =     13.47948  eV     1   --> A_1  D_1  S_1  
     e( 11 - 11) =     13.63757  eV     1   --> A_2  D_2  S_2  
     e( 12 - 13) =     16.05096  eV     2   --> B_1  D_3  S_3  
     e( 12 - 13) =     16.05096  eV     2   --> B_2  D_4  S_4  
     e( 14 - 14) =     16.14620  eV     1   --> A_1  D_1  S_1  
     e( 15 - 15) =     19.49043  eV     1   --> A_1  D_1  S_1  

 **************************************************************************

 **************************************************************************

                    xk=(  -0.08000,   0.00000,   0.00000  )

     Band symmetry, C_2v (mm2)  point group:

     e(  1 -  1) =     -7.21879  eV     1   --> A_1  D_1  S_1  
     e(  2 -  2) =      4.37509  eV     1   --> A_1  D_1  S_1  
     e(  3 -  4) =      4.53705  eV     2   --> B_1  D_3  S_3  
     e(  3 -  4) =      4.53705  eV     2   --> B_2  D_4  S_4  
     e(  5 -  5) =      6.95764  eV     1   --> A_1  D_1  S_1  
     e(  6 -  6) =      8.81409  eV     1   --> A_1  D_1  S_1  
     e(  7 -  8) =      8.98720  eV     2   --> B_1  D_3  S_3  
     e(  7 -  8) =      8.98720  eV     2   --> B_2  D_4  S_4  
     e(  9 -  9) =     13.32179  eV     1   --> A_1  D_1  S_1  
     e( 10 - 10) =     13.52120  eV     1   --> A_1  D_1  S_1  
     e( 11 - 11) =     13.65034  eV     1   --> A_2  D_2  S_2  
     e( 12 - 13) =     16.07259  eV     2   --> B_1  D_3  S_3  
     e( 12 - 13) =     16.07259  eV     2   --> B_2  D_4  S_4  
     e( 14 - 14) =     16.22865  eV     1   --> A_1  D_1  S_1  
     e( 15 - 15) =     19.58489  eV     1   --> A_1  D_1  S_1  

 **************************************************************************

 **************************************************************************

                    xk=(  -0.10000,   0.00000,   0.00000  )

     Band symmetry, C_2v (mm2)  point group:

     e(  1 -  1) =     -7.20700  eV     1   --> A_1  D_1  S_1  
     e(  2 -  2) =      4.26735  eV     1   --> A_1  D_1  S_1  
     e(  3 -  4) =      4.50492  eV     2   --> B_1  D_3  S_3  
     e(  3 -  4) =      4.50492  eV     2   --> B_2  D_4  S_4  
     e(  5 -  5) =      7.07118  eV     1   --> A_1  D_1  S_1  
     e(  6 -  6) =      8.76974  eV     1   --> A_1  D_1  S_1  
     e(  7 -  8) =      9.03688  eV     2   --> B_1  D_3  S_3  
     e(  7 -  8) =      9.03688  eV     2   --> B_2  D_4  S_4  
     e(  9 -  9) =     13.18210  eV     1   --> A_1  D_1  S_1  
     e( 10 - 10) =     13.58925  eV     1   --> A_1  D_1  S_1  
     e( 11 - 11) =     13.66676  eV     1   --> A_2  D_2  S_2  
     e( 12 - 13) =     16.10041  eV     2   --> B_1  D_3  S_3  
     e( 12 - 13) =     16.10041  eV     2   --> B_2  D_4  S_4  
     e( 14 - 14) =     16.32209  eV     1   --> A_1  D_1  S_1  
     e( 15 - 15) =     19.70529  eV     1   --> A_1  D_1  S_1  

 **************************************************************************

 **************************************************************************

                    xk=(  -0.12000,   0.00000,   0.00000  )

     Band symmetry, C_2v (mm2)  point group:

     e(  1 -  1) =     -7.19272  eV     1   --> A_1  D_1  S_1  
     e(  2 -  2) =      4.14711  eV     1   --> A_1  D_1  S_1  
     e(  3 -  4) =      4.46674  eV     2   --> B_1  D_3  S_3  
     e(  3 -  4) =      4.46674  eV     2   --> B_2  D_4  S_4  
     e(  5 -  5) =      7.19757  eV     1   --> A_1  D_1  S_1  
     e(  6 -  6) =      8.71737  eV     1   --> A_1  D_1  S_1  
     e(  7 -  8) =      9.09645  eV     2   --> B_1  D_3  S_3  
     e(  7 -  8) =      9.09645  eV     2   --> B_2  D_4  S_4  
     e(  9 -  9) =     13.02704  eV     1   --> A_1  D_1  S_1  
     e( 10 - 10) =     13.67176  eV     1   --> A_1  D_1  S_1  
     e( 11 - 11) =     13.68682  eV     1   --> A_2  D_2  S_2  
     e( 12 - 13) =     16.13442  eV     2   --> B_1  D_3  S_3  
     e( 12 - 13) =     16.13442  eV     2   --> B_2  D_4  S_4  
     e( 14 - 14) =     16.42176  eV     1   --> A_1  D_1  S_1  
     e( 15 - 15) =     19.85062  eV     1   --> A_1  D_1  S_1  

 **************************************************************************

 **************************************************************************

                    xk=(  -0.14000,   0.00000,   0.00000  )

     Band symmetry, C_2v (mm2)  point group:

     e(  1 -  1) =     -7.17588  eV     1   --> A_1  D_1  S_1  
     e(  2 -  2) =      4.01759  eV     1   --> A_1  D_1  S_1  
     e(  3 -  4) =      4.42310  eV     2   --> B_1  D_3  S_3  
     e(  3 -  4) =      4.42310  eV     2   --> B_2  D_4  S_4  
     e(  5 -  5) =      7.33328  eV     1   --> A_1  D_1  S_1  
     e(  6 -  6) =      8.65790  eV     1   --> A_1  D_1  S_1  
     e(  7 -  8) =      9.16534  eV     2   --> B_1  D_3  S_3  
     e(  7 -  8) =      9.16534  eV     2   --> B_2  D_4  S_4  
     e(  9 -  9) =     12.86239  eV     1   --> A_1  D_1  S_1  
     e( 10 - 10) =     13.71054  eV     1   --> A_2  D_2  S_2  
     e( 11 - 11) =     13.76712  eV     1   --> A_1  D_1  S_1  
     e( 12 - 13) =     16.17462  eV     2   --> B_1  D_3  S_3  
     e( 12 - 13) =     16.17462  eV     2   --> B_2  D_4  S_4  
     e( 14 - 14) =     16.52421  eV     1   --> A_1  D_1  S_1  
     e( 15 - 15) =     20.01966  eV     1   --> A_1  D_1  S_1  

 **************************************************************************

 **************************************************************************

                    xk=(  -0.16000,   0.00000,   0.00000  )

     Band symmetry, C_2v (mm2)  point group:

     e(  1 -  1) =     -7.15642  eV     1   --> A_1  D_1  S_1  
     e(  2 -  2) =      3.88129  eV     1   --> A_1  D_1  S_1  
     e(  3 -  4) =      4.37458  eV     2   --> B_1  D_3  S_3  
     e(  3 -  4) =      4.37458  eV     2   --> B_2  D_4  S_4  
     e(  5 -  5) =      7.47533  eV     1   --> A_1  D_1  S_1  
     e(  6 -  6) =      8.59224  eV     1   --> A_1  D_1  S_1  
     e(  7 -  8) =      9.24292  eV     2   --> B_1  D_3  S_3  
     e(  7 -  8) =      9.24292  eV     2   --> B_2  D_4  S_4  
     e(  9 -  9) =     12.69258  eV     1   --> A_1  D_1  S_1  
     e( 10 - 10) =     13.73790  eV     1   --> A_2  D_2  S_2  
     e( 11 - 11) =     13.87424  eV     1   --> A_1  D_1  S_1  
     e( 12 - 13) =     16.22102  eV     2   --> B_1  D_3  S_3  
     e( 12 - 13) =     16.22102  eV     2   --> B_2  D_4  S_4  
     e( 14 - 14) =     16.62726  eV     1   --> A_1  D_1  S_1  
     e( 15 - 15) =     20.21088  eV     1   --> A_1  D_1  S_1  

 **************************************************************************

 **************************************************************************

                    xk=(  -0.18000,   0.00000,   0.00000  )

     Band symmetry, C_2v (mm2)  point group:

     e(  1 -  1) =     -7.13451  eV     1   --> A_1  D_1  S_1  
     e(  2 -  2) =      3.74005  eV     1   --> A_1  D_1  S_1  
     e(  3 -  4) =      4.32179  eV     2   --> B_1  D_3  S_3  
     e(  3 -  4) =      4.32179  eV     2   --> B_2  D_4  S_4  
     e(  5 -  5) =      7.62069  eV     1   --> A_1  D_1  S_1  
     e(  6 -  6) =      8.52132  eV     1   --> A_1  D_1  S_1  
     e(  7 -  8) =      9.32855  eV     2   --> B_1  D_3  S_3  
     e(  7 -  8) =      9.32855  eV     2   --> B_2  D_4  S_4  
     e(  9 -  9) =     12.52129  eV     1   --> A_1  D_1  S_1  
     e( 10 - 10) =     13.76890  eV     1   --> A_2  D_2  S_2  
     e( 11 - 11) =     13.99205  eV     1   --> A_1  D_1  S_1  
     e( 12 - 13) =     16.27362  eV     2   --> B_1  D_3  S_3  
     e( 12 - 13) =     16.27362  eV     2   --> B_2  D_4  S_4  
     e( 14 - 14) =     16.72967  eV     1   --> A_1  D_1  S_1  
     e( 15 - 15) =     20.42250  eV     1   --> A_1  D_1  S_1  

 **************************************************************************

 **************************************************************************

                    xk=(  -0.20000,   0.00000,   0.00000  )

     Band symmetry, C_2v (mm2)  point group:

     e(  1 -  1) =     -7.11011  eV     1   --> A_1  D_1  S_1  
     e(  2 -  2) =      3.59531  eV     1   --> A_1  D_1  S_1  
     e(  3 -  4) =      4.26532  eV     2   --> B_1  D_3  S_3  
     e(  3 -  4) =      4.26532  eV     2   --> B_2  D_4  S_4  
     e(  5 -  5) =      7.76700  eV     1   --> A_1  D_1  S_1  
     e(  6 -  6) =      8.44602  eV     1   --> A_1  D_1  S_1  
     e(  7 -  8) =      9.42161  eV     2   --> B_1  D_3  S_3  
     e(  7 -  8) =      9.42161  eV     2   --> B_2  D_4  S_4  
     e(  9 -  9) =     12.35181  eV     1   --> A_1  D_1  S_1  
     e( 10 - 10) =     13.80355  eV     1   --> A_2  D_2  S_2  
     e( 11 - 11) =     14.11963  eV     1   --> A_1  D_1  S_1  
     e( 12 - 13) =     16.33241  eV     2   --> B_1  D_3  S_3  
     e( 12 - 13) =     16.33241  eV     2   --> B_2  D_4  S_4  
     e( 14 - 14) =     16.83097  eV     1   --> A_1  D_1  S_1  
     e( 15 - 15) =     20.65267  eV     1   --> A_1  D_1  S_1  

 **************************************************************************

 **************************************************************************

                    xk=(  -0.22000,   0.00000,   0.00000  )

     Band symmetry, C_2v (mm2)  point group:

     e(  1 -  1) =     -7.08336  eV     1   --> A_1  D_1  S_1  
     e(  2 -  2) =      3.44809  eV     1   --> A_1  D_1  S_1  
     e(  3 -  4) =      4.20575  eV     2   --> B_1  D_3  S_3  
     e(  3 -  4) =      4.20575  eV     2   --> B_2  D_4  S_4  
     e(  5 -  5) =      7.91167  eV     1   --> A_1  D_1  S_1  
     e(  6 -  6) =      8.36729  eV     1   --> A_1  D_1  S_1  
     e(  7 -  8) =      9.52149  eV     2   --> B_1  D_3  S_3  
     e(  7 -  8) =      9.52149  eV     2   --> B_2  D_4  S_4  
     e(  9 -  9) =     12.18719  eV     1   --> A_1  D_1  S_1  
     e( 10 - 10) =     13.84185  eV     1   --> A_2  D_2  S_2  
     e( 11 - 11) =     14.25605  eV     1   --> A_1  D_1  S_1  
     e( 12 - 13) =     16.39740  eV     2   --> B_1  D_3  S_3  
     e( 12 - 13) =     16.39740  eV     2   --> B_2  D_4  S_4  
     e( 14 - 14) =     16.93117  eV     1   --> A_1  D_1  S_1  
     e( 15 - 15) =     20.89943  eV     1   --> A_1  D_1  S_1  

 **************************************************************************

 **************************************************************************

                    xk=(  -0.24000,   0.00000,   0.00000  )

     Band symmetry, C_2v (mm2)  point group:

     e(  1 -  1) =     -7.05406  eV     1   --> A_1  D_1  S_1  
     e(  2 -  2) =      3.29933  eV     1   --> A_1  D_1  S_1  
     e(  3 -  4) =      4.14363  eV     2   --> B_1  D_3  S_3  
     e(  3 -  4) =      4.14363  eV     2   --> B_2  D_4  S_4  
     e(  5 -  5) =      8.05154  eV     1   --> A_1  D_1  S_1  
     e(  6 -  6) =      8.28653  eV     1   --> A_1  D_1  S_1  
     e(  7 -  8) =      9.62762  eV     2   --> B_1  D_3  S_3  
     e(  7 -  8) =      9.62762  eV     2   --> B_2  D_4  S_4  
     e(  9 -  9) =     12.03052  eV     1   --> A_1  D_1  S_1  
     e( 10 - 10) =     13.88379  eV     1   --> A_2  D_2  S_2  
     e( 11 - 11) =     14.40055  eV     1   --> A_1  D_1  S_1  
     e( 12 - 13) =     16.46857  eV     2   --> B_1  D_3  S_3  
     e( 12 - 13) =     16.46857  eV     2   --> B_2  D_4  S_4  
     e( 14 - 14) =     17.03060  eV     1   --> A_1  D_1  S_1  
     e( 15 - 15) =     21.16084  eV     1   --> A_1  D_1  S_1  

 **************************************************************************

 **************************************************************************

                    xk=(  -0.26000,   0.00000,   0.00000  )

     Band symmetry, C_2v (mm2)  point group:

     e(  1 -  1) =     -7.02236  eV     1   --> A_1  D_1  S_1  
     e(  2 -  2) =      3.14959  eV     1   --> A_1  D_1  S_1  
     e(  3 -  4) =      4.07947  eV     2   --> B_1  D_3  S_3  
     e(  3 -  4) =      4.07947  eV     2   --> B_2  D_4  S_4  
     e(  5 -  5) =      8.16803  eV     1   --> A_1  D_1  S_1  
     e(  6 -  6) =      8.22017  eV     1   --> A_1  D_1  S_1  
     e(  7 -  8) =      9.73943  eV     2   --> B_1  D_3  S_3  
     e(  7 -  8) =      9.73943  eV     2   --> B_2  D_4  S_4  
     e(  9 -  9) =     11.88500  eV     1   --> A_1  D_1  S_1  
     e( 10 - 10) =     13.92937  eV     1   --> A_2  D_2  S_2  
     e( 11 - 11) =     14.55231  eV     1   --> A_1  D_1  S_1  
     e( 12 - 13) =     16.54591  eV     2   --> B_1  D_3  S_3  
     e( 12 - 13) =     16.54591  eV     2   --> B_2  D_4  S_4  
     e( 14 - 14) =     17.12976  eV     1   --> A_1  D_1  S_1  
     e( 15 - 15) =     21.43492  eV     1   --> A_1  D_1  S_1  

 **************************************************************************

 **************************************************************************

                    xk=(  -0.28000,   0.00000,   0.00000  )

     Band symmetry, C_2v (mm2)  point group:

     e(  1 -  1) =     -6.98830  eV     1   --> A_1  D_1  S_1  
     e(  2 -  2) =      2.99939  eV     1   --> A_1  D_1  S_1  
     e(  3 -  4) =      4.01374  eV     2   --> B_1  D_3  S_3  
     e(  3 -  4) =      4.01374  eV     2   --> B_2  D_4  S_4  
     e(  5 -  5) =      8.10997  eV     1   --> A_1  D_1  S_1  
     e(  6 -  6) =      8.31680  eV     1   --> A_1  D_1  S_1  
     e(  7 -  8) =      9.85643  eV     2   --> B_1  D_3  S_3  
     e(  7 -  8) =      9.85643  eV     2   --> B_2  D_4  S_4  
     e(  9 -  9) =     11.75417  eV     1   --> A_1  D_1  S_1  
     e( 10 - 10) =     13.97859  eV     1   --> A_2  D_2  S_2  
     e( 11 - 11) =     14.71060  eV     1   --> A_1  D_1  S_1  
     e( 12 - 13) =     16.62940  eV     2   --> B_1  D_3  S_3  
     e( 12 - 13) =     16.62940  eV     2   --> B_2  D_4  S_4  
     e( 14 - 14) =     17.22920  eV     1   --> A_1  D_1  S_1  
     e( 15 - 15) =     21.71972  eV     1   --> A_1  D_1  S_1  

 **************************************************************************

 **************************************************************************

                    xk=(  -0.30000,   0.00000,   0.00000  )

     Band symmetry, C_2v (mm2)  point group:

     e(  1 -  1) =     -6.95193  eV     1   --> A_1  D_1  S_1  
     e(  2 -  2) =      2.84910  eV     1   --> A_1  D_1  S_1  
     e(  3 -  4) =      3.94688  eV     2   --> B_1  D_3  S_3  
     e(  3 -  4) =      3.94688  eV     2   --> B_2  D_4  S_4  
     e(  5 -  5) =      8.02426  eV     1   --> A_1  D_1  S_1  
     e(  6 -  6) =      8.42652  eV     1   --> A_1  D_1  S_1  
     e(  7 -  8) =      9.97814  eV     2   --> B_1  D_3  S_3  
     e(  7 -  8) =      9.97814  eV     2   --> B_2  D_4  S_4  
     e(  9 -  9) =     11.64187  eV     1   --> A_1  D_1  S_1  
     e( 10 - 10) =     14.03145  eV     1   --> A_2  D_2  S_2  
     e( 11 - 11) =     14.87473  eV     1   --> A_1  D_1  S_1  
     e( 12 - 13) =     16.71900  eV     2   --> B_1  D_3  S_3  
     e( 12 - 13) =     16.71900  eV     2   --> B_2  D_4  S_4  
     e( 14 - 14) =     17.32954  eV     1   --> A_1  D_1  S_1  
     e( 15 - 15) =     22.01319  eV     1   --> A_1  D_1  S_1  

 **************************************************************************

 **************************************************************************

                    xk=(  -0.32000,   0.00000,   0.00000  )

     Band symmetry, C_2v (mm2)  point group:

     e(  1 -  1) =     -6.91330  eV     1   --> A_1  D_1  S_1  
     e(  2 -  2) =      2.69904  eV     1   --> A_1  D_1  S_1  
     e(  3 -  4) =      3.87929  eV     2   --> B_1  D_3  S_3  
     e(  3 -  4) =      3.87929  eV     2   --> B_2  D_4  S_4  
     e(  5 -  5) =      7.93678  eV     1   --> A_1  D_1  S_1  
     e(  6 -  6) =      8.52006  eV     1   --> A_1  D_1  S_1  
     e(  7 -  8) =     10.10412  eV     2   --> B_1  D_3  S_3  
     e(  7 -  8) =     10.10412  eV     2   --> B_2  D_4  S_4  
     e(  9 -  9) =     11.55220  eV     1   --> A_1  D_1  S_1  
     e( 10 - 10) =     14.08796  eV     1   --> A_2  D_2  S_2  
     e( 11 - 11) =     15.04405  eV     1   --> A_1  D_1  S_1  
     e( 12 - 13) =     16.81466  eV     2   --> B_1  D_3  S_3  
     e( 12 - 13) =     16.81466  eV     2   --> B_2  D_4  S_4  
     e( 14 - 14) =     17.43135  eV     1   --> A_1  D_1  S_1  
     e( 15 - 15) =     22.31307  eV     1   --> A_1  D_1  S_1  

 **************************************************************************

 **************************************************************************

                    xk=(  -0.34000,   0.00000,   0.00000  )

     Band symmetry, C_2v (mm2)  point group:

     e(  1 -  1) =     -6.87249  eV     1   --> A_1  D_1  S_1  
     e(  2 -  2) =      2.54942  eV     1   --> A_1  D_1  S_1  
     e(  3 -  4) =      3.81131  eV     2   --> B_1  D_3  S_3  
     e(  3 -  4) =      3.81131  eV     2   --> B_2  D_4  S_4  
     e(  5 -  5) =      7.84871  eV     1   --> A_1  D_1  S_1  
     e(  6 -  6) =      8.59276  eV     1   --> A_1  D_1  S_1  
     e(  7 -  8) =     10.23398  eV     2   --> B_1  D_3  S_3  
     e(  7 -  8) =     10.23398  eV     2   --> B_2  D_4  S_4  
     e(  9 -  9) =     11.48921  eV     1   --> A_1  D_1  S_1  
     e( 10 - 10) =     14.14809  eV     1   --> A_2  D_2  S_2  
     e( 11 - 11) =     15.21790  eV     1   --> A_1  D_1  S_1  
     e( 12 - 13) =     16.91632  eV     2   --> B_1  D_3  S_3  
     e( 12 - 13) =     16.91632  eV     2   --> B_2  D_4  S_4  
     e( 14 - 14) =     17.53519  eV     1   --> A_1  D_1  S_1  
     e( 15 - 15) =     22.61664  eV     1   --> A_1  D_1  S_1  

 **************************************************************************

 **************************************************************************

                    xk=(  -0.36000,   0.00000,   0.00000  )

     Band symmetry, C_2v (mm2)  point group:

     e(  1 -  1) =     -6.82950  eV     1   --> A_1  D_1  S_1  
     e(  2 -  2) =      2.40055  eV     1   --> A_1  D_1  S_1  
     e(  3 -  4) =      3.74329  eV     2   --> B_1  D_3  S_3  
     e(  3 -  4) =      3.74329  eV     2   --> B_2  D_4  S_4  
     e(  5 -  5) =      7.76060  eV     1   --> A_1  D_1  S_1  
     e(  6 -  6) =      8.64129  eV     1   --> A_1  D_1  S_1  
     e(  7 -  8) =     10.36736  eV     2   --> B_1  D_3  S_3  
     e(  7 -  8) =     10.36736  eV     2   --> B_2  D_4  S_4  
     e(  9 -  9) =     11.45631  eV     1   --> A_1  D_1  S_1  
     e( 10 - 10) =     14.21186  eV     1   --> A_2  D_2  S_2  
     e( 11 - 11) =     15.39572  eV     1   --> A_1  D_1  S_1  
     e( 12 - 13) =     17.02389  eV     2   --> B_1  D_3  S_3  
     e( 12 - 13) =     17.02389  eV     2   --> B_2  D_4  S_4  
     e( 14 - 14) =     17.64157  eV     1   --> A_1  D_1  S_1  
     e( 15 - 15) =     22.92029  eV     1   --> A_1  D_1  S_1  

 **************************************************************************

 **************************************************************************

                    xk=(  -0.38000,   0.00000,   0.00000  )

     Band symmetry, C_2v (mm2)  point group:

     e(  1 -  1) =     -6.78443  eV     1   --> A_1  D_1  S_1  
     e(  2 -  2) =      2.25258  eV     1   --> A_1  D_1  S_1  
     e(  3 -  4) =      3.67550  eV     2   --> B_1  D_3  S_3  
     e(  3 -  4) =      3.67550  eV     2   --> B_2  D_4  S_4  
     e(  5 -  5) =      7.67279  eV     1   --> A_1  D_1  S_1  
     e(  6 -  6) =      8.66363  eV     1   --> A_1  D_1  S_1  
     e(  7 -  8) =     10.50392  eV     2   --> B_1  D_3  S_3  
     e(  7 -  8) =     10.50392  eV     2   --> B_2  D_4  S_4  
     e(  9 -  9) =     11.45556  eV     1   --> A_1  D_1  S_1  
     e( 10 - 10) =     14.27927  eV     1   --> A_2  D_2  S_2  
     e( 11 - 11) =     15.57685  eV     1   --> A_1  D_1  S_1  
     e( 12 - 13) =     17.13726  eV     2   --> B_1  D_3  S_3  
     e( 12 - 13) =     17.13726  eV     2   --> B_2  D_4  S_4  
     e( 14 - 14) =     17.75098  eV     1   --> A_1  D_1  S_1  
     e( 15 - 15) =     23.21858  eV     1   --> A_1  D_1  S_1  

 **************************************************************************

 **************************************************************************

                    xk=(  -0.40000,   0.00000,   0.00000  )

     Band symmetry, C_2v (mm2)  point group:

     e(  1 -  1) =     -6.73732  eV     1   --> A_1  D_1  S_1  
     e(  2 -  2) =      2.10567  eV     1   --> A_1  D_1  S_1  
     e(  3 -  4) =      3.60821  eV     2   --> B_1  D_3  S_3  
     e(  3 -  4) =      3.60821  eV     2   --> B_2  D_4  S_4  
     e(  5 -  5) =      7.58558  eV     1   --> A_1  D_1  S_1  
     e(  6 -  6) =      8.65973  eV     1   --> A_1  D_1  S_1  
     e(  7 -  8) =     10.64336  eV     2   --> B_1  D_3  S_3  
     e(  7 -  8) =     10.64336  eV     2   --> B_2  D_4  S_4  
     e(  9 -  9) =     11.48721  eV     1   --> A_1  D_1  S_1  
     e( 10 - 10) =     14.35030  eV     1   --> A_2  D_2  S_2  
     e( 11 - 11) =     15.76067  eV     1   --> A_1  D_1  S_1  
     e( 12 - 13) =     17.25627  eV     2   --> B_1  D_3  S_3  
     e( 12 - 13) =     17.25627  eV     2   --> B_2  D_4  S_4  
     e( 14 - 14) =     17.86390  eV     1   --> A_1  D_1  S_1  
     e( 15 - 15) =     23.36695  eV     1   -->   ?

 **************************************************************************

 **************************************************************************

                    xk=(  -0.42000,   0.00000,   0.00000  )

     Band symmetry, C_2v (mm2)  point group:

     e(  1 -  1) =     -6.68831  eV     1   --> A_1  D_1  S_1  
     e(  2 -  2) =      1.95994  eV     1   --> A_1  D_1  S_1  
     e(  3 -  4) =      3.54166  eV     2   --> B_1  D_3  S_3  
     e(  3 -  4) =      3.54166  eV     2   --> B_2  D_4  S_4  
     e(  5 -  5) =      7.49921  eV     1   --> A_1  D_1  S_1  
     e(  6 -  6) =      8.63125  eV     1   --> A_1  D_1  S_1  
     e(  7 -  8) =     10.78540  eV     2   --> B_1  D_3  S_3  
     e(  7 -  8) =     10.78540  eV     2   --> B_2  D_4  S_4  
     e(  9 -  9) =     11.54945  eV     1   --> A_1  D_1  S_1  
     e( 10 - 10) =     14.42497  eV     1   --> A_2  D_2  S_2  
     e( 11 - 11) =     15.94652  eV     1   --> A_1  D_1  S_1  
     e( 12 - 13) =     17.38073  eV     2   --> B_1  D_3  S_3  
     e( 12 - 13) =     17.38073  eV     2   --> B_2  D_4  S_4  
     e( 14 - 14) =     17.98069  eV     1   --> A_1  D_1  S_1  
     e( 15 - 15) =     23.11269  eV     1   -->   ?

 **************************************************************************

 **************************************************************************

                    xk=(  -0.44000,   0.00000,   0.00000  )

     Band symmetry, C_2v (mm2)  point group:

     e(  1 -  1) =     -6.63747  eV     1   --> A_1  D_1  S_1  
     e(  2 -  2) =      1.81555  eV     1   --> A_1  D_1  S_1  
     e(  3 -  4) =      3.47607  eV     2   --> B_1  D_3  S_3  
     e(  3 -  4) =      3.47607  eV     2   --> B_2  D_4  S_4  
     e(  5 -  5) =      7.41390  eV     1   --> A_1  D_1  S_1  
     e(  6 -  6) =      8.58156  eV     1   --> A_1  D_1  S_1  
     e(  7 -  8) =     10.92981  eV     2   --> B_1  D_3  S_3  
     e(  7 -  8) =     10.92981  eV     2   --> B_2  D_4  S_4  
     e(  9 -  9) =     11.63906  eV     1   --> A_1  D_1  S_1  
     e( 10 - 10) =     14.50325  eV     1   --> A_2  D_2  S_2  
     e( 11 - 11) =     16.13369  eV     1   --> A_1  D_1  S_1  
     e( 12 - 13) =     17.51035  eV     2   --> B_1  D_3  S_3  
     e( 12 - 13) =     17.51035  eV     2   --> B_2  D_4  S_4  
     e( 14 - 14) =     18.10180  eV     1   --> A_1  D_1  S_1  
     e( 15 - 15) =     22.86170  eV     1   -->   ?

 **************************************************************************

 **************************************************************************

                    xk=(  -0.46000,   0.00000,   0.00000  )

     Band symmetry, C_2v (mm2)  point group:

     e(  1 -  1) =     -6.58490  eV     1   --> A_1  D_1  S_1  
     e(  2 -  2) =      1.67263  eV     1   --> A_1  D_1  S_1  
     e(  3 -  4) =      3.41162  eV     2   --> B_1  D_3  S_3  
     e(  3 -  4) =      3.41162  eV     2   --> B_2  D_4  S_4  
     e(  5 -  5) =      7.32982  eV     1   --> A_1  D_1  S_1  
     e(  6 -  6) =      8.51469  eV     1   --> A_1  D_1  S_1  
     e(  7 -  8) =     11.07634  eV     2   --> B_1  D_3  S_3  
     e(  7 -  8) =     11.07634  eV     2   --> B_2  D_4  S_4  
     e(  9 -  9) =     11.75202  eV     1   --> A_1  D_1  S_1  
     e( 10 - 10) =     14.58516  eV     1   --> A_2  D_2  S_2  
     e( 11 - 11) =     16.32143  eV     1   --> A_1  D_1  S_1  
     e( 12 - 13) =     17.64479  eV     2   --> B_1  D_3  S_3  
     e( 12 - 13) =     17.64479  eV     2   --> B_2  D_4  S_4  
     e( 14 - 14) =     18.22763  eV     1   --> A_1  D_1  S_1  
     e( 15 - 15) =     22.61450  eV     1   -->   ?

 **************************************************************************

 **************************************************************************

                    xk=(  -0.48000,   0.00000,   0.00000  )

     Band symmetry, C_2v (mm2)  point group:

     e(  1 -  1) =     -6.53069  eV     1   --> A_1  D_1  S_1  
     e(  2 -  2) =      1.53131  eV     1   --> A_1  D_1  S_1  
     e(  3 -  4) =      3.34848  eV     2   --> B_1  D_3  S_3  
     e(  3 -  4) =      3.34848  eV     2   --> B_2  D_4  S_4  
     e(  5 -  5) =      7.24715  eV     1   --> A_1  D_1  S_1  
     e(  6 -  6) =      8.43474  eV     1   --> A_1  D_1  S_1  
     e(  7 -  8) =     11.22480  eV     2   --> B_1  D_3  S_3  
     e(  7 -  8) =     11.22480  eV     2   --> B_2  D_4  S_4  
     e(  9 -  9) =     11.88424  eV     1   --> A_1  D_1  S_1  
     e( 10 - 10) =     14.67069  eV     1   --> A_2  D_2  S_2  
     e( 11 - 11) =     16.50889  eV     1   --> A_1  D_1  S_1  
     e( 12 - 13) =     17.78356  eV     2   --> B_1  D_3  S_3  
     e( 12 - 13) =     17.78356  eV     2   --> B_2  D_4  S_4  
     e( 14 - 14) =     18.35858  eV     1   --> A_1  D_1  S_1  
     e( 15 - 15) =     22.37171  eV     1   -->   ?

 **************************************************************************

 **************************************************************************

                    xk=(  -0.50000,   0.00000,   0.00000  )

     Band symmetry, C_2v (mm2)  point group:

     e(  1 -  1) =     -6.47488  eV     1   --> A_1  D_1  S_1  
     e(  2 -  2) =      1.39175  eV     1   --> A_1  D_1  S_1  
     e(  3 -  4) =      3.28683  eV     2   --> B_1  D_3  S_3  
     e(  3 -  4) =      3.28683  eV     2   --> B_2  D_4  S_4  
     e(  5 -  5) =      7.16604  eV     1   --> A_1  D_1  S_1  
     e(  6 -  6) =      8.34551  eV     1   --> A_1  D_1  S_1  
     e(  7 -  8) =     11.37499  eV     2   --> B_1  D_3  S_3  
     e(  7 -  8) =     11.37499  eV     2   --> B_2  D_4  S_4  
     e(  9 -  9) =     12.03203  eV     1   --> A_1  D_1  S_1  
     e( 10 - 10) =     14.75984  eV     1   --> A_2  D_2  S_2  
     e( 11 - 11) =     16.69514  eV     1   --> A_1  D_1  S_1  
     e( 12 - 13) =     17.92600  eV     2   --> B_1  D_3  S_3  
     e( 12 - 13) =     17.92600  eV     2   --> B_2  D_4  S_4  
     e( 14 - 14) =     18.49508  eV     1   --> A_1  D_1  S_1  
     e( 15 - 15) =     22.13411  eV     1   -->   ?

 **************************************************************************

 **************************************************************************

                    xk=(  -0.52000,   0.00000,   0.00000  )

     Band symmetry, C_2v (mm2)  point group:

     e(  1 -  1) =     -6.41779  eV     1   --> A_1  D_1  S_1  
     e(  2 -  2) =      1.25404  eV     1   --> A_1  D_1  S_1  
     e(  3 -  4) =      3.22678  eV     2   --> B_1  D_3  S_3  
     e(  3 -  4) =      3.22678  eV     2   --> B_2  D_4  S_4  
     e(  5 -  5) =      7.08659  eV     1   --> A_1  D_1  S_1  
     e(  6 -  6) =      8.25003  eV     1   --> A_1  D_1  S_1  
     e(  7 -  8) =     11.52673  eV     2   --> B_1  D_3  S_3  
     e(  7 -  8) =     11.52673  eV     2   --> B_2  D_4  S_4  
     e(  9 -  9) =     12.19199  eV     1   --> A_1  D_1  S_1  
     e( 10 - 10) =     14.85259  eV     1   --> A_2  D_2  S_2  
     e( 11 - 11) =     16.87916  eV     1   --> A_1  D_1  S_1  
     e( 12 - 13) =     18.07118  eV     2   --> B_1  D_3  S_3  
     e( 12 - 13) =     18.07118  eV     2   --> B_2  D_4  S_4  
     e( 14 - 14) =     18.63746  eV     1   --> A_1  D_1  S_1  
     e( 15 - 15) =     21.90273  eV     1   -->   ?

 **************************************************************************

 **************************************************************************

                    xk=(  -0.54000,   0.00000,   0.00000  )

     Band symmetry, C_2v (mm2)  point group:

     e(  1 -  1) =     -6.35954  eV     1   --> A_1  D_1  S_1  
     e(  2 -  2) =      1.11829  eV     1   --> A_1  D_1  S_1  
     e(  3 -  4) =      3.16847  eV     2   --> B_1  D_3  S_3  
     e(  3 -  4) =      3.16847  eV     2   --> B_2  D_4  S_4  
     e(  5 -  5) =      7.00891  eV     1   --> A_1  D_1  S_1  
     e(  6 -  6) =      8.15097  eV     1   --> A_1  D_1  S_1  
     e(  7 -  8) =     11.67986  eV     2   --> B_1  D_3  S_3  
     e(  7 -  8) =     11.67986  eV     2   --> B_2  D_4  S_4  
     e(  9 -  9) =     12.36145  eV     1   --> A_1  D_1  S_1  
     e( 10 - 10) =     14.94895  eV     1   --> A_2  D_2  S_2  
     e( 11 - 11) =     17.05976  eV     1   --> A_1  D_1  S_1  
     e( 12 - 13) =     18.21778  eV     2   --> B_1  D_3  S_3  
     e( 12 - 13) =     18.21778  eV     2   --> B_2  D_4  S_4  
     e( 14 - 14) =     18.78614  eV     1   --> A_1  D_1  S_1  
     e( 15 - 15) =     21.67896  eV     1   -->   ?

 **************************************************************************

 **************************************************************************

                    xk=(  -0.56000,   0.00000,   0.00000  )

     Band symmetry, C_2v (mm2)  point group:

     e(  1 -  1) =     -6.30027  eV     1   --> A_1  D_1  S_1  
     e(  2 -  2) =      0.98478  eV     1   --> A_1  D_1  S_1  
     e(  3 -  4) =      3.11200  eV     2   --> B_1  D_3  S_3  
     e(  3 -  4) =      3.11200  eV     2   --> B_2  D_4  S_4  
     e(  5 -  5) =      6.93311  eV     1   --> A_1  D_1  S_1  
     e(  6 -  6) =      8.05043  eV     1   --> A_1  D_1  S_1  
     e(  7 -  8) =     11.83422  eV     2   --> B_1  D_3  S_3  
     e(  7 -  8) =     11.83422  eV     2   --> B_2  D_4  S_4  
     e(  9 -  9) =     12.53833  eV     1   --> A_1  D_1  S_1  
     e( 10 - 10) =     15.04891  eV     1   --> A_2  D_2  S_2  
     e( 11 - 11) =     17.23570  eV     1   --> A_1  D_1  S_1  
     e( 12 - 13) =     18.36387  eV     2   --> B_1  D_3  S_3  
     e( 12 - 13) =     18.36387  eV     2   --> B_2  D_4  S_4  
     e( 14 - 14) =     18.94152  eV     1   --> A_1  D_1  S_1  
     e( 15 - 15) =     21.46481  eV     1   -->   ?

 **************************************************************************

 **************************************************************************

                    xk=(  -0.58000,   0.00000,   0.00000  )

     Band symmetry, C_2v (mm2)  point group:

     e(  1 -  1) =     -6.23991  eV     1   --> A_1  D_1  S_1  
     e(  2 -  2) =      0.85365  eV     1   --> A_1  D_1  S_1  
     e(  3 -  4) =      3.05750  eV     2   --> B_1  D_3  S_3  
     e(  3 -  4) =      3.05750  eV     2   --> B_2  D_4  S_4  
     e(  5 -  5) =      6.85935  eV     1   --> A_1  D_1  S_1  
     e(  6 -  6) =      7.95004  eV     1   --> A_1  D_1  S_1  
     e(  7 -  8) =     11.98966  eV     2   --> B_1  D_3  S_3  
     e(  7 -  8) =     11.98966  eV     2   --> B_2  D_4  S_4  
     e(  9 -  9) =     12.72086  eV     1   --> A_1  D_1  S_1  
     e( 10 - 10) =     15.15246  eV     1   --> A_2  D_2  S_2  
     e( 11 - 11) =     17.40560  eV     1   --> A_1  D_1  S_1  
     e( 12 - 13) =     18.50659  eV     2   --> B_1  D_3  S_3  
     e( 12 - 13) =     18.50659  eV     2   --> B_2  D_4  S_4  
     e( 14 - 14) =     19.10393  eV     1   --> A_1  D_1  S_1  
     e( 15 - 15) =     21.26322  eV     1   -->   ?

 **************************************************************************

 **************************************************************************

                    xk=(  -0.60000,   0.00000,   0.00000  )

     Band symmetry, C_2v (mm2)  point group:

     e(  1 -  1) =     -6.17891  eV     1   --> A_1  D_1  S_1  
     e(  2 -  2) =      0.72507  eV     1   --> A_1  D_1  S_1  
     e(  3 -  4) =      3.00505  eV     2   --> B_1  D_3  S_3  
     e(  3 -  4) =      3.00505  eV     2   --> B_2  D_4  S_4  
     e(  5 -  5) =      6.78767  eV     1   --> A_1  D_1  S_1  
     e(  6 -  6) =      7.85107  eV     1   --> A_1  D_1  S_1  
     e(  7 -  8) =     12.14603  eV     2   --> B_1  D_3  S_3  
     e(  7 -  8) =     12.14603  eV     2   --> B_2  D_4  S_4  
     e(  9 -  9) =     12.90745  eV     1   --> A_1  D_1  S_1  
     e( 10 - 10) =     15.25960  eV     1   --> A_2  D_2  S_2  
     e( 11 - 11) =     17.56791  eV     1   --> A_1  D_1  S_1  
     e( 12 - 13) =     18.64161  eV     2   --> B_1  D_3  S_3  
     e( 12 - 13) =     18.64161  eV     2   --> B_2  D_4  S_4  
     e( 14 - 14) =     19.27365  eV     1   --> A_1  D_1  S_1  
     e( 15 - 15) =     21.07858  eV     1   -->   ?

 **************************************************************************

 **************************************************************************

                    xk=(  -0.62000,   0.00000,   0.00000  )

     Band symmetry, C_2v (mm2)  point group:

     e(  1 -  1) =     -6.11731  eV     1   --> A_1  D_1  S_1  
     e(  2 -  2) =      0.59928  eV     1   --> A_1  D_1  S_1  
     e(  3 -  4) =      2.95474  eV     2   --> B_1  D_3  S_3  
     e(  3 -  4) =      2.95474  eV     2   --> B_2  D_4  S_4  
     e(  5 -  5) =      6.71822  eV     1   --> A_1  D_1  S_1  
     e(  6 -  6) =      7.75458  eV     1   --> A_1  D_1  S_1  
     e(  7 -  8) =     12.30317  eV     2   --> B_1  D_3  S_3  
     e(  7 -  8) =     12.30317  eV     2   --> B_2  D_4  S_4  
     e(  9 -  9) =     13.09700  eV     1   --> A_1  D_1  S_1  
     e( 10 - 10) =     15.37032  eV     1   --> A_2  D_2  S_2  
     e( 11 - 11) =     17.72105  eV     1   --> A_1  D_1  S_1  
     e( 12 - 13) =     18.76239  eV     2   --> B_1  D_3  S_3  
     e( 12 - 13) =     18.76239  eV     2   --> B_2  D_4  S_4  
     e( 14 - 14) =     19.45088  eV     1   --> A_1  D_1  S_1  
     e( 15 - 15) =     20.91747  eV     1   -->   ?

 **************************************************************************

 **************************************************************************

                    xk=(  -0.64000,   0.00000,   0.00000  )

     Band symmetry, C_2v (mm2)  point group:

     e(  1 -  1) =     -6.05551  eV     1   --> A_1  D_1  S_1  
     e(  2 -  2) =      0.47648  eV     1   --> A_1  D_1  S_1  
     e(  3 -  4) =      2.90663  eV     2   --> B_1  D_3  S_3  
     e(  3 -  4) =      2.90663  eV     2   --> B_2  D_4  S_4  
     e(  5 -  5) =      6.65105  eV     1   --> A_1  D_1  S_1  
     e(  6 -  6) =      7.66132  eV     1   --> A_1  D_1  S_1  
     e(  7 -  8) =     12.46092  eV     2   --> B_1  D_3  S_3  
     e(  7 -  8) =     12.46092  eV     2   --> B_2  D_4  S_4  
     e(  9 -  9) =     13.28833  eV     1   --> A_1  D_1  S_1  
     e( 10 - 10) =     15.48460  eV     1   --> A_2  D_2  S_2  
     e( 11 - 11) =     17.86332  eV     1   --> A_1  D_1  S_1  
     e( 12 - 13) =     18.85959  eV     2   --> B_1  D_3  S_3  
     e( 12 - 13) =     18.85959  eV     2   --> B_2  D_4  S_4  
     e( 14 - 14) =     19.63570  eV     1   --> A_1  D_1  S_1  
     e( 15 - 15) =     20.78931  eV     1   -->   ?

 **************************************************************************

 **************************************************************************

                    xk=(  -0.66000,   0.00000,   0.00000  )

     Band symmetry, C_2v (mm2)  point group:

     e(  1 -  1) =     -5.99375  eV     1   --> A_1  D_1  S_1  
     e(  2 -  2) =      0.35691  eV     1   --> A_1  D_1  S_1  
     e(  3 -  4) =      2.86079  eV     2   --> B_1  D_3  S_3  
     e(  3 -  4) =      2.86079  eV     2   --> B_2  D_4  S_4  
     e(  5 -  5) =      6.58632  eV     1   --> A_1  D_1  S_1  
     e(  6 -  6) =      7.57188  eV     1   --> A_1  D_1  S_1  
     e(  7 -  8) =     12.61911  eV     2   --> B_1  D_3  S_3  
     e(  7 -  8) =     12.61911  eV     2   --> B_2  D_4  S_4  
     e(  9 -  9) =     13.48046  eV     1   --> A_1  D_1  S_1  
     e( 10 - 10) =     15.60244  eV     1   --> A_2  D_2  S_2  
     e( 11 - 11) =     17.99303  eV     1   --> A_1  D_1  S_1  
     e( 12 - 13) =     18.92139  eV     2   --> B_1  D_3  S_3  
     e( 12 - 13) =     18.92139  eV     2   --> B_2  D_4  S_4  
     e( 14 - 14) =     19.82806  eV     1   --> A_1  D_1  S_1  
     e( 15 - 15) =     20.70599  eV     1   -->   ?

 **************************************************************************

 **************************************************************************

                    xk=(  -0.68000,   0.00000,   0.00000  )

     Band symmetry, C_2v (mm2)  point group:

     e(  1 -  1) =     -5.93225  eV     1   --> A_1  D_1  S_1  
     e(  2 -  2) =      0.24087  eV     1   --> A_1  D_1  S_1  
     e(  3 -  4) =      2.81730  eV     2   --> B_1  D_3  S_3  
     e(  3 -  4) =      2.81730  eV     2   --> B_2  D_4  S_4  
     e(  5 -  5) =      6.52413  eV     1   --> A_1  D_1  S_1  
     e(  6 -  6) =      7.48676  eV     1   --> A_1  D_1  S_1  
     e(  7 -  8) =     12.77753  eV     2   --> B_1  D_3  S_3  
     e(  7 -  8) =     12.77753  eV     2   --> B_2  D_4  S_4  
     e(  9 -  9) =     13.67262  eV     1   --> A_1  D_1  S_1  
     e( 10 - 10) =     15.72381  eV     1   --> A_2  D_2  S_2  
     e( 11 - 11) =     18.10852  eV     1   --> A_1  D_1  S_1  
     e( 12 - 13) =     18.93678  eV     2   --> B_1  D_3  S_3  
     e( 12 - 13) =     18.93678  eV     2   --> B_2  D_4  S_4  
     e( 14 - 14) =     20.02781  eV     1   --> A_1  D_1  S_1  
     e( 15 - 15) =     20.67858  eV     1   -->   ?

 **************************************************************************

 **************************************************************************

                    xk=(  -0.70000,   0.00000,   0.00000  )

     Band symmetry, C_2v (mm2)  point group:

     e(  1 -  1) =     -5.87133  eV     1   --> A_1  D_1  S_1  
     e(  2 -  2) =      0.12867  eV     1   --> A_1  D_1  S_1  
     e(  3 -  4) =      2.77619  eV     2   --> B_1  D_3  S_3  
     e(  3 -  4) =      2.77619  eV     2   --> B_2  D_4  S_4  
     e(  5 -  5) =      6.46463  eV     1   --> A_1  D_1  S_1  
     e(  6 -  6) =      7.40631  eV     1   --> A_1  D_1  S_1  
     e(  7 -  8) =     12.93595  eV     2   --> B_1  D_3  S_3  
     e(  7 -  8) =     12.93595  eV     2   --> B_2  D_4  S_4  
     e(  9 -  9) =     13.86401  eV     1   --> A_1  D_1  S_1  
     e( 10 - 10) =     15.84870  eV     1   --> A_2  D_2  S_2  
     e( 11 - 11) =     18.20822  eV     1   --> A_1  D_1  S_1  
     e( 12 - 13) =     18.90142  eV     2   --> B_1  D_3  S_3  
     e( 12 - 13) =     18.90142  eV     2   --> B_2  D_4  S_4  
     e( 14 - 14) =     20.23466  eV     1   --> A_1  D_1  S_1  
     e( 15 - 15) =     20.71154  eV     1   -->   ?

 **************************************************************************

 **************************************************************************

                    xk=(  -0.72000,   0.00000,   0.00000  )

     Band symmetry, C_2v (mm2)  point group:

     e(  1 -  1) =     -5.81128  eV     1   --> A_1  D_1  S_1  
     e(  2 -  2) =      0.02058  eV     1   --> A_1  D_1  S_1  
     e(  3 -  4) =      2.73754  eV     2   --> B_1  D_3  S_3  
     e(  3 -  4) =      2.73754  eV     2   --> B_2  D_4  S_4  
     e(  5 -  5) =      6.40796  eV     1   --> A_1  D_1  S_1  
     e(  6 -  6) =      7.33078  eV     1   --> A_1  D_1  S_1  
     e(  7 -  8) =     13.09411  eV     2   --> B_1  D_3  S_3  
     e(  7 -  8) =     13.09411  eV     2   --> B_2  D_4  S_4  
     e(  9 -  9) =     14.05386  eV     1   --> A_1  D_1  S_1  
     e( 10 - 10) =     15.97709  eV     1   --> A_2  D_2  S_2  
     e( 11 - 11) =     18.29079  eV     1   --> A_1  D_1  S_1  
     e( 12 - 13) =     18.82060  eV     2   --> B_1  D_3  S_3  
     e( 12 - 13) =     18.82060  eV     2   --> B_2  D_4  S_4  
     e( 14 - 14) =     20.44822  eV     1   --> A_1  D_1  S_1  
     e( 15 - 15) =     20.79973  eV     1   -->   ?

 **************************************************************************

 **************************************************************************

                    xk=(  -0.74000,   0.00000,   0.00000  )

     Band symmetry, C_2v (mm2)  point group:

     e(  1 -  1) =     -5.75255  eV     1   --> A_1  D_1  S_1  
     e(  2 -  2) =     -0.08291  eV     1   --> A_1  D_1  S_1  
     e(  3 -  4) =      2.70137  eV     2   --> B_1  D_3  S_3  
     e(  3 -  4) =      2.70137  eV     2   --> B_2  D_4  S_4  
     e(  5 -  5) =      6.35425  eV     1   --> A_1  D_1  S_1  
     e(  6 -  6) =      7.26038  eV     1   --> A_1  D_1  S_1  
     e(  7 -  8) =     13.25166  eV     2   --> B_1  D_3  S_3  
     e(  7 -  8) =     13.25166  eV     2   --> B_2  D_4  S_4  
     e(  9 -  9) =     14.24137  eV     1   --> A_1  D_1  S_1  
     e( 10 - 10) =     16.10895  eV     1   --> A_2  D_2  S_2  
     e( 11 - 11) =     18.35528  eV     1   --> A_1  D_1  S_1  
     e( 12 - 13) =     18.70553  eV     2   --> B_1  D_3  S_3  
     e( 12 - 13) =     18.70553  eV     2   --> B_2  D_4  S_4  
     e( 14 - 14) =     20.66803  eV     1   --> A_1  D_1  S_1  
     e( 15 - 15) =     20.85476  eV     1   --> A_2  D_2  S_2  

 **************************************************************************

 **************************************************************************

                    xk=(  -0.76000,   0.00000,   0.00000  )

     Band symmetry, C_2v (mm2)  point group:

     e(  1 -  1) =     -5.69547  eV     1   --> A_1  D_1  S_1  
     e(  2 -  2) =     -0.18147  eV     1   --> A_1  D_1  S_1  
     e(  3 -  4) =      2.66773  eV     2   --> B_1  D_3  S_3  
     e(  3 -  4) =      2.66773  eV     2   --> B_2  D_4  S_4  
     e(  5 -  5) =      6.30366  eV     1   --> A_1  D_1  S_1  
     e(  6 -  6) =      7.19523  eV     1   --> A_1  D_1  S_1  
     e(  7 -  8) =     13.40819  eV     2   --> B_1  D_3  S_3  
     e(  7 -  8) =     13.40819  eV     2   --> B_2  D_4  S_4  
     e(  9 -  9) =     14.42572  eV     1   --> A_1  D_1  S_1  
     e( 10 - 10) =     16.24423  eV     1   --> A_2  D_2  S_2  
     e( 11 - 11) =     18.40117  eV     1   --> A_1  D_1  S_1  
     e( 12 - 13) =     18.56777  eV     2   --> B_1  D_3  S_3  
     e( 12 - 13) =     18.56777  eV     2   --> B_2  D_4  S_4  
     e( 14 - 14) =     20.63063  eV     1   --> A_2  D_2  S_2  
     e( 15 - 15) =     20.89362  eV     1   --> A_1  D_1  S_1  

 **************************************************************************

 **************************************************************************

                    xk=(  -0.78000,   0.00000,   0.00000  )

     Band symmetry, C_2v (mm2)  point group:

     e(  1 -  1) =     -5.64049  eV     1   --> A_1  D_1  S_1  
     e(  2 -  2) =     -0.27470  eV     1   --> A_1  D_1  S_1  
     e(  3 -  4) =      2.63666  eV     2   --> B_1  D_3  S_3  
     e(  3 -  4) =      2.63666  eV     2   --> B_2  D_4  S_4  
     e(  5 -  5) =      6.25635  eV     1   --> A_1  D_1  S_1  
     e(  6 -  6) =      7.13539  eV     1   --> A_1  D_1  S_1  
     e(  7 -  8) =     13.56316  eV     2   --> B_1  D_3  S_3  
     e(  7 -  8) =     13.56316  eV     2   --> B_2  D_4  S_4  
     e(  9 -  9) =     14.60601  eV     1   --> A_1  D_1  S_1  
     e( 10 - 10) =     16.38289  eV     1   --> A_2  D_2  S_2  
     e( 11 - 12) =     18.41647  eV     2   --> B_1  D_3  S_3  
     e( 11 - 12) =     18.41647  eV     2   --> B_2  D_4  S_4  
     e( 13 - 13) =     18.42853  eV     1   --> A_1  D_1  S_1  
     e( 14 - 14) =     20.41020  eV     1   --> A_2  D_2  S_2  
     e( 15 - 15) =     21.12447  eV     1   --> A_1  D_1  S_1  

 **************************************************************************

 **************************************************************************

                    xk=(  -0.80000,   0.00000,   0.00000  )

     Band symmetry, C_2v (mm2)  point group:

     e(  1 -  1) =     -5.58806  eV     1   --> A_1  D_1  S_1  
     e(  2 -  2) =     -0.36212  eV     1   --> A_1  D_1  S_1  
     e(  3 -  4) =      2.60819  eV     2   --> B_1  D_3  S_3  
     e(  3 -  4) =      2.60819  eV     2   --> B_2  D_4  S_4  
     e(  5 -  5) =      6.21249  eV     1   --> A_1  D_1  S_1  
     e(  6 -  6) =      7.08089  eV     1   --> A_1  D_1  S_1  
     e(  7 -  8) =     13.71592  eV     2   --> B_1  D_3  S_3  
     e(  7 -  8) =     13.71592  eV     2   --> B_2  D_4  S_4  
     e(  9 -  9) =     14.78127  eV     1   --> A_1  D_1  S_1  
     e( 10 - 10) =     16.52484  eV     1   --> A_2  D_2  S_2  
     e( 11 - 12) =     18.25825  eV     2   --> B_1  D_3  S_3  
     e( 11 - 12) =     18.25825  eV     2   --> B_2  D_4  S_4  
     e( 13 - 13) =     18.43818  eV     1   --> A_1  D_1  S_1  
     e( 14 - 14) =     20.19355  eV     1   --> A_2  D_2  S_2  
     e( 15 - 15) =     21.36010  eV     1   --> A_1  D_1  S_1  

 **************************************************************************

 **************************************************************************

                    xk=(  -0.82000,   0.00000,   0.00000  )

     Band symmetry, C_2v (mm2)  point group:

     e(  1 -  1) =     -5.53853  eV     1   --> A_1  D_1  S_1  
     e(  2 -  2) =     -0.44327  eV     1   --> A_1  D_1  S_1  
     e(  3 -  4) =      2.58235  eV     2   --> B_1  D_3  S_3  
     e(  3 -  4) =      2.58235  eV     2   --> B_2  D_4  S_4  
     e(  5 -  5) =      6.17224  eV     1   --> A_1  D_1  S_1  
     e(  6 -  6) =      7.03175  eV     1   --> A_1  D_1  S_1  
     e(  7 -  8) =     13.86559  eV     2   --> B_1  D_3  S_3  
     e(  7 -  8) =     13.86559  eV     2   --> B_2  D_4  S_4  
     e(  9 -  9) =     14.95032  eV     1   --> A_1  D_1  S_1  
     e( 10 - 10) =     16.66999  eV     1   --> A_2  D_2  S_2  
     e( 11 - 12) =     18.09792  eV     2   --> B_1  D_3  S_3  
     e( 11 - 12) =     18.09792  eV     2   --> B_2  D_4  S_4  
     e( 13 - 13) =     18.43158  eV     1   --> A_1  D_1  S_1  
     e( 14 - 14) =     19.98080  eV     1   --> A_2  D_2  S_2  
     e( 15 - 15) =     21.60002  eV     1   --> A_1  D_1  S_1  

 **************************************************************************

 **************************************************************************

                    xk=(  -0.84000,   0.00000,   0.00000  )

     Band symmetry, C_2v (mm2)  point group:

     e(  1 -  1) =     -5.49238  eV     1   --> A_1  D_1  S_1  
     e(  2 -  2) =     -0.51770  eV     1   --> A_1  D_1  S_1  
     e(  3 -  4) =      2.55917  eV     2   --> B_1  D_3  S_3  
     e(  3 -  4) =      2.55917  eV     2   --> B_2  D_4  S_4  
     e(  5 -  5) =      6.13578  eV     1   --> A_1  D_1  S_1  
     e(  6 -  6) =      6.98795  eV     1   --> A_1  D_1  S_1  
     e(  7 -  8) =     14.01104  eV     2   --> B_1  D_3  S_3  
     e(  7 -  8) =     14.01104  eV     2   --> B_2  D_4  S_4  
     e(  9 -  9) =     15.11180  eV     1   --> A_1  D_1  S_1  
     e( 10 - 10) =     16.81820  eV     1   --> A_2  D_2  S_2  
     e( 11 - 12) =     17.93922  eV     2   --> B_1  D_3  S_3  
     e( 11 - 12) =     17.93922  eV     2   --> B_2  D_4  S_4  
     e( 13 - 13) =     18.41085  eV     1   --> A_1  D_1  S_1  
     e( 14 - 14) =     19.77210  eV     1   --> A_2  D_2  S_2  
     e( 15 - 15) =     21.84378  eV     1   --> A_1  D_1  S_1  

 **************************************************************************

 **************************************************************************

                    xk=(  -0.86000,   0.00000,   0.00000  )

     Band symmetry, C_2v (mm2)  point group:

     e(  1 -  1) =     -5.45023  eV     1   --> A_1  D_1  S_1  
     e(  2 -  2) =     -0.58486  eV     1   --> A_1  D_1  S_1  
     e(  3 -  4) =      2.53866  eV     2   --> B_1  D_3  S_3  
     e(  3 -  4) =      2.53866  eV     2   --> B_2  D_4  S_4  
     e(  5 -  5) =      6.10321  eV     1   --> A_1  D_1  S_1  
     e(  6 -  6) =      6.94944  eV     1   --> A_1  D_1  S_1  
     e(  7 -  8) =     14.15076  eV     2   --> B_1  D_3  S_3  
     e(  7 -  8) =     14.15076  eV     2   --> B_2  D_4  S_4  
     e(  9 -  9) =     15.26403  eV     1   --> A_1  D_1  S_1  
     e( 10 - 10) =     16.96922  eV     1   --> A_2  D_2  S_2  
     e( 11 - 12) =     17.78537  eV     2   --> B_1  D_3  S_3  
     e( 11 - 12) =     17.78537  eV     2   --> B_2  D_4  S_4  
     e( 13 - 13) =     18.37875  eV     1   --> A_1  D_1  S_1  
     e( 14 - 14) =     19.56769  eV     1   --> A_2  D_2  S_2  
     e( 15 - 15) =     22.09087  eV     1   --> A_1  D_1  S_1  

 **************************************************************************

 **************************************************************************

                    xk=(  -0.88000,   0.00000,   0.00000  )

     Band symmetry, C_2v (mm2)  point group:

     e(  1 -  1) =     -5.41249  eV     1   --> A_1  D_1  S_1  
     e(  2 -  2) =     -0.64429  eV     1   --> A_1  D_1  S_1  
     e(  3 -  4) =      2.52085  eV     2   --> B_1  D_3  S_3  
     e(  3 -  4) =      2.52085  eV     2   --> B_2  D_4  S_4  
     e(  5 -  5) =      6.07469  eV     1   --> A_1  D_1  S_1  
     e(  6 -  6) =      6.91619  eV     1   --> A_1  D_1  S_1  
     e(  7 -  8) =     14.28282  eV     2   --> B_1  D_3  S_3  
     e(  7 -  8) =     14.28282  eV     2   --> B_2  D_4  S_4  
     e(  9 -  9) =     15.40505  eV     1   --> A_1  D_1  S_1  
     e( 10 - 10) =     17.12268  eV     1   --> A_2  D_2  S_2  
     e( 11 - 12) =     17.63949  eV     2   --> B_1  D_3  S_3  
     e( 11 - 12) =     17.63949  eV     2   --> B_2  D_4  S_4  
     e( 13 - 13) =     18.33850  eV     1   --> A_1  D_1  S_1  
     e( 14 - 14) =     19.36795  eV     1   --> A_2  D_2  S_2  
     e( 15 - 15) =     22.34071  eV     1   --> A_1  D_1  S_1  

 **************************************************************************

 **************************************************************************

                    xk=(  -0.90000,   0.00000,   0.00000  )

     Band symmetry, C_2v (mm2)  point group:

     e(  1 -  1) =     -5.37973  eV     1   --> A_1  D_1  S_1  
     e(  2 -  2) =     -0.69558  eV     1   --> A_1  D_1  S_1  
     e(  3 -  4) =      2.50574  eV     2   --> B_1  D_3  S_3  
     e(  3 -  4) =      2.50574  eV     2   --> B_2  D_4  S_4  
     e(  5 -  5) =      6.05032  eV     1   --> A_1  D_1  S_1  
     e(  6 -  6) =      6.88814  eV     1   --> A_1  D_1  S_1  
     e(  7 -  8) =     14.40468  eV     2   --> B_1  D_3  S_3  
     e(  7 -  8) =     14.40468  eV     2   --> B_2  D_4  S_4  
     e(  9 -  9) =     15.53246  eV     1   --> A_1  D_1  S_1  
     e( 10 - 10) =     17.27794  eV     1   --> A_2  D_2  S_2  
     e( 11 - 12) =     17.50492  eV     2   --> B_1  D_3  S_3  
     e( 11 - 12) =     17.50492  eV     2   --> B_2  D_4  S_4  
     e( 13 - 13) =     18.29371  eV     1   --> A_1  D_1  S_1  
     e( 14 - 14) =     19.17352  eV     1   --> A_2  D_2  S_2  
     e( 15 - 15) =     22.59248  eV     1   --> A_1  D_1  S_1  

 **************************************************************************

 **************************************************************************

                    xk=(  -0.92000,   0.00000,   0.00000  )

     Band symmetry, C_2v (mm2)  point group:

     e(  1 -  1) =     -5.35217  eV     1   --> A_1  D_1  S_1  
     e(  2 -  2) =     -0.73818  eV     1   --> A_1  D_1  S_1  
     e(  3 -  4) =      2.49337  eV     2   --> B_1  D_3  S_3  
     e(  3 -  4) =      2.49337  eV     2   --> B_2  D_4  S_4  
     e(  5 -  5) =      6.03025  eV     1   --> A_1  D_1  S_1  
     e(  6 -  6) =      6.86527  eV     1   --> A_1  D_1  S_1  
     e(  7 -  8) =     14.51317  eV     2   --> B_1  D_3  S_3  
     e(  7 -  8) =     14.51317  eV     2   --> B_2  D_4  S_4  
     e(  9 -  9) =     15.64345  eV     1   --> A_1  D_1  S_1  
     e( 10 - 11) =     17.38544  eV     2   --> B_1  D_3  S_3  
     e( 10 - 11) =     17.38544  eV     2   --> B_2  D_4  S_4  
     e( 12 - 12) =     17.43376  eV     1   --> A_2  D_2  S_2  
     e( 13 - 13) =     18.24856  eV     1   --> A_1  D_1  S_1  
     e( 14 - 14) =     18.98564  eV     1   --> A_2  D_2  S_2  
     e( 15 - 15) =     22.84477  eV     1   --> A_1  D_1  S_1  

 **************************************************************************

 **************************************************************************

                    xk=(  -0.94000,   0.00000,   0.00000  )

     Band symmetry, C_2v (mm2)  point group:

     e(  1 -  1) =     -5.33011  eV     1   --> A_1  D_1  S_1  
     e(  2 -  2) =     -0.77173  eV     1   --> A_1  D_1  S_1  
     e(  3 -  4) =      2.48375  eV     2   --> B_1  D_3  S_3  
     e(  3 -  4) =      2.48375  eV     2   --> B_2  D_4  S_4  
     e(  5 -  5) =      6.01458  eV     1   --> A_1  D_1  S_1  
     e(  6 -  6) =      6.84755  eV     1   --> A_1  D_1  S_1  
     e(  7 -  8) =     14.60441  eV     2   --> B_1  D_3  S_3  
     e(  7 -  8) =     14.60441  eV     2   --> B_2  D_4  S_4  
     e(  9 -  9) =     15.73487  eV     1   --> A_1  D_1  S_1  
     e( 10 - 11) =     17.28531  eV     2   --> B_1  D_3  S_3  
     e( 10 - 11) =     17.28531  eV     2   --> B_2  D_4  S_4  
     e( 12 - 12) =     17.58762  eV     1   --> A_2  D_2  S_2  
     e( 13 - 13) =     18.20735  eV     1   --> A_1  D_1  S_1  
     e( 14 - 14) =     18.80686  eV     1   --> A_2  D_2  S_2  
     e( 15 - 15) =     23.09502  eV     1   -->   ?

 **************************************************************************

 **************************************************************************

                    xk=(  -0.96000,   0.00000,   0.00000  )

     Band symmetry, C_2v (mm2)  point group:

     e(  1 -  1) =     -5.31425  eV     1   --> A_1  D_1  S_1  
     e(  2 -  2) =     -0.79596  eV     1   --> A_1  D_1  S_1  
     e(  3 -  4) =      2.47686  eV     2   --> B_1  D_3  S_3  
     e(  3 -  4) =      2.47686  eV     2   --> B_2  D_4  S_4  
     e(  5 -  5) =      6.00331  eV     1   --> A_1  D_1  S_1  
     e(  6 -  6) =      6.83490  eV     1   --> A_1  D_1  S_1  
     e(  7 -  8) =     14.67408  eV     2   --> B_1  D_3  S_3  
     e(  7 -  8) =     14.67408  eV     2   --> B_2  D_4  S_4  
     e(  9 -  9) =     15.80336  eV     1   --> A_1  D_1  S_1  
     e( 10 - 11) =     17.20910  eV     2   --> B_1  D_3  S_3  
     e( 10 - 11) =     17.20910  eV     2   --> B_2  D_4  S_4  
     e( 12 - 12) =     17.73334  eV     1   --> A_2  D_2  S_2  
     e( 13 - 13) =     18.17399  eV     1   --> A_1  D_1  S_1  
     e( 14 - 14) =     18.64333  eV     1   --> A_2  D_2  S_2  
     e( 15 - 15) =     23.33739  eV     1   -->   ?

 **************************************************************************

 **************************************************************************

                    xk=(  -0.98000,   0.00000,   0.00000  )

     Band symmetry, C_2v (mm2)  point group:

     e(  1 -  1) =     -5.30463  eV     1   --> A_1  D_1  S_1  
     e(  2 -  2) =     -0.81060  eV     1   --> A_1  D_1  S_1  
     e(  3 -  4) =      2.47272  eV     2   --> B_1  D_3  S_3  
     e(  3 -  4) =      2.47272  eV     2   --> B_2  D_4  S_4  
     e(  5 -  5) =      5.99653  eV     1   --> A_1  D_1  S_1  
     e(  6 -  6) =      6.82732  eV     1   --> A_1  D_1  S_1  
     e(  7 -  8) =     14.71802  eV     2   --> B_1  D_3  S_3  
     e(  7 -  8) =     14.71802  eV     2   --> B_2  D_4  S_4  
     e(  9 -  9) =     15.84592  eV     1   --> A_1  D_1  S_1  
     e( 10 - 11) =     17.16118  eV     2   --> B_1  D_3  S_3  
     e( 10 - 11) =     17.16118  eV     2   --> B_2  D_4  S_4  
     e( 12 - 12) =     17.85399  eV     1   --> A_2  D_2  S_2  
     e( 13 - 13) =     18.15225  eV     1   --> A_1  D_1  S_1  
     e( 14 - 14) =     18.51199  eV     1   --> A_2  D_2  S_2  
     e( 15 - 15) =     23.55319  eV     1   -->   ?

 **************************************************************************

 **************************************************************************

                    xk=(  -1.00000,   0.00000,   0.00000  )

     point group D_2d (-42m)
     there are  5 classes
     the character table:

       E     2S4   C2    2C2'  2s_d 
A_1    1.00  1.00  1.00  1.00  1.00
A_2    1.00  1.00  1.00 -1.00 -1.00
B_1    1.00 -1.00  1.00  1.00 -1.00
B_2    1.00 -1.00  1.00 -1.00  1.00
E      2.00  0.00 -2.00  0.00  0.00

     the symmetry operations in each class and the name of the first element:

     E        1
                                                                 
     2S4      7    8
                                                                 
     C2       4
                                                                 
     2C2'     2    3
                                                                 
     2s_d     5    6
                                                                 

     Band symmetry, D_2d (-42m) point group:

     e(  1 -  1) =     -5.30141  eV     1   --> B_2  X_3  W_2  
     e(  2 -  2) =     -0.81549  eV     1   --> A_1  X_1  W_1  
     e(  3 -  4) =      2.47134  eV     2   --> E    X_5  W_3  
     e(  5 -  5) =      5.99426  eV     1   --> B_2  X_3  W_2  
     e(  6 -  6) =      6.82480  eV     1   --> A_1  X_1  W_1  
     e(  7 -  8) =     14.73305  eV     2   --> E    X_5  W_3  
     e(  9 -  9) =     15.86037  eV     1   --> A_1  X_1  W_1  
     e( 10 - 11) =     17.14480  eV     2   --> E    X_5  W_3  
     e( 12 - 12) =     17.90678  eV     1   --> B_1  X_2  W_1' 
     e( 13 - 13) =     18.14469  eV     1   --> B_2  X_3  W_2  
     e( 14 - 14) =     18.45564  eV     1   --> A_2  X_4  W_2' 
     e( 15 - 15) =     23.62679  eV     1   -->   ?

 **************************************************************************

 **************************************************************************

                    xk=(  -1.00000,   0.00500,   0.00500  )

     point group C_s (m)    
     there are  2 classes
     the character table:

       E     s    
A'     1.00  1.00
A''    1.00 -1.00

     the symmetry operations in each class and the name of the first element:

     E        1
                                                                 
     s        2
                                                                 

     Band symmetry, C_s (m)     point group:

     e(  1 -  1) =     -5.30139  eV     1   --> A'             
     e(  2 -  2) =     -0.81536  eV     1   --> A'             
     e(  3 -  3) =      2.47017  eV     1   --> A'             
     e(  4 -  4) =      2.47150  eV     1   --> A''            
     e(  5 -  5) =      5.99526  eV     1   --> A'             
     e(  6 -  6) =      6.82583  eV     1   --> A'             
     e(  7 -  7) =     14.73157  eV     1   --> A''            
     e(  8 -  8) =     14.73176  eV     1   --> A'             
     e(  9 -  9) =     15.85704  eV     1   --> A'             
     e( 10 - 10) =     17.13918  eV     1   --> A''            
     e( 11 - 11) =     17.14694  eV     1   --> A'             
     e( 12 - 12) =     17.91206  eV     1   --> A''            
     e( 13 - 13) =     18.14741  eV     1   --> A'             
     e( 14 - 14) =     18.45760  eV     1   --> A''            
     e( 15 - 15) =     23.57921  eV     1   -->   ?

 **************************************************************************

 **************************************************************************

                    xk=(  -1.00000,   0.01000,   0.01000  )

     Band symmetry, C_s (m)     point group:

     e(  1 -  1) =     -5.30135  eV     1   --> A'             
     e(  2 -  2) =     -0.81495  eV     1   --> A'             
     e(  3 -  3) =      2.46667  eV     1   --> A'             
     e(  4 -  4) =      2.47196  eV     1   --> A''            
     e(  5 -  5) =      5.99824  eV     1   --> A'             
     e(  6 -  6) =      6.82894  eV     1   --> A'             
     e(  7 -  7) =     14.72713  eV     1   --> A''            
     e(  8 -  8) =     14.72787  eV     1   --> A'             
     e(  9 -  9) =     15.84712  eV     1   --> A'             
     e( 10 - 10) =     17.12278  eV     1   --> A''            
     e( 11 - 11) =     17.15329  eV     1   --> A'             
     e( 12 - 12) =     17.92746  eV     1   --> A''            
     e( 13 - 13) =     18.15552  eV     1   --> A'             
     e( 14 - 14) =     18.46347  eV     1   --> A''            
     e( 15 - 15) =     23.51358  eV     1   --> A'             

 **************************************************************************

 **************************************************************************

                    xk=(  -1.00000,   0.01500,   0.01500  )

     Band symmetry, C_s (m)     point group:

     e(  1 -  1) =     -5.30128  eV     1   --> A'             
     e(  2 -  2) =     -0.81428  eV     1   --> A'             
     e(  3 -  3) =      2.46085  eV     1   --> A'             
     e(  4 -  4) =      2.47272  eV     1   --> A''            
     e(  5 -  5) =      6.00315  eV     1   --> A'             
     e(  6 -  6) =      6.83414  eV     1   --> A'             
     e(  7 -  7) =     14.71976  eV     1   --> A''            
     e(  8 -  8) =     14.72143  eV     1   --> A'             
     e(  9 -  9) =     15.83085  eV     1   --> A'             
     e( 10 - 10) =     17.09680  eV     1   --> A''            
     e( 11 - 11) =     17.16367  eV     1   --> A'             
     e( 12 - 12) =     17.95175  eV     1   --> A''            
     e( 13 - 13) =     18.16897  eV     1   --> A'             
     e( 14 - 14) =     18.47323  eV     1   --> A''            
     e( 15 - 15) =     23.44634  eV     1   --> A'             

 **************************************************************************

 **************************************************************************

                    xk=(  -1.00000,   0.02000,   0.02000  )

     Band symmetry, C_s (m)     point group:

     e(  1 -  1) =     -5.30117  eV     1   --> A'             
     e(  2 -  2) =     -0.81334  eV     1   --> A'             
     e(  3 -  3) =      2.45276  eV     1   --> A'             
     e(  4 -  4) =      2.47379  eV     1   --> A''            
     e(  5 -  5) =      6.00994  eV     1   --> A'             
     e(  6 -  6) =      6.84146  eV     1   --> A'             
     e(  7 -  7) =     14.70950  eV     1   --> A''            
     e(  8 -  8) =     14.71245  eV     1   --> A'             
     e(  9 -  9) =     15.80859  eV     1   --> A'             
     e( 10 - 10) =     17.06281  eV     1   --> A''            
     e( 11 - 11) =     17.17779  eV     1   --> A'             
     e( 12 - 12) =     17.98337  eV     1   --> A''            
     e( 13 - 13) =     18.18762  eV     1   --> A'             
     e( 14 - 14) =     18.48684  eV     1   --> A''            
     e( 15 - 15) =     23.37760  eV     1   --> A'             

 **************************************************************************

 **************************************************************************

                    xk=(  -1.00000,   0.02500,   0.02500  )

     Band symmetry, C_s (m)     point group:

     e(  1 -  1) =     -5.30104  eV     1   --> A'             
     e(  2 -  2) =     -0.81213  eV     1   --> A'             
     e(  3 -  3) =      2.44244  eV     1   --> A'             
     e(  4 -  4) =      2.47516  eV     1   --> A''            
     e(  5 -  5) =      6.01850  eV     1   --> A'             
     e(  6 -  6) =      6.85094  eV     1   --> A'             
     e(  7 -  7) =     14.69641  eV     1   --> A''            
     e(  8 -  8) =     14.70101  eV     1   --> A'             
     e(  9 -  9) =     15.78082  eV     1   --> A'             
     e( 10 - 10) =     17.02240  eV     1   --> A''            
     e( 11 - 11) =     17.19530  eV     1   --> A'             
     e( 12 - 12) =     18.02071  eV     1   --> A''            
     e( 13 - 13) =     18.21131  eV     1   --> A'             
     e( 14 - 14) =     18.50426  eV     1   --> A''            
     e( 15 - 15) =     23.30773  eV     1   --> A'             

 **************************************************************************

 **************************************************************************

                    xk=(  -1.00000,   0.03000,   0.03000  )

     Band symmetry, C_s (m)     point group:

     e(  1 -  1) =     -5.30088  eV     1   --> A'             
     e(  2 -  2) =     -0.81065  eV     1   --> A'             
     e(  3 -  3) =      2.42997  eV     1   --> A'             
     e(  4 -  4) =      2.47684  eV     1   --> A''            
     e(  5 -  5) =      6.02874  eV     1   --> A'             
     e(  6 -  6) =      6.86264  eV     1   --> A'             
     e(  7 -  7) =     14.68057  eV     1   --> A''            
     e(  8 -  8) =     14.68716  eV     1   --> A'             
     e(  9 -  9) =     15.74803  eV     1   --> A'             
     e( 10 - 10) =     16.97696  eV     1   --> A''            
     e( 11 - 11) =     17.21583  eV     1   --> A'             
     e( 12 - 12) =     18.06237  eV     1   --> A''            
     e( 13 - 13) =     18.23984  eV     1   --> A'             
     e( 14 - 14) =     18.52542  eV     1   --> A''            
     e( 15 - 15) =     23.23694  eV     1   --> A'             

 **************************************************************************

 **************************************************************************

                    xk=(  -1.00000,   0.03500,   0.03500  )

     Band symmetry, C_s (m)     point group:

     e(  1 -  1) =     -5.30070  eV     1   --> A'             
     e(  2 -  2) =     -0.80891  eV     1   --> A'             
     e(  3 -  3) =      2.41542  eV     1   --> A'             
     e(  4 -  4) =      2.47883  eV     1   --> A''            
     e(  5 -  5) =      6.04050  eV     1   --> A'             
     e(  6 -  6) =      6.87661  eV     1   --> A'             
     e(  7 -  7) =     14.66204  eV     1   --> A''            
     e(  8 -  8) =     14.67097  eV     1   --> A'             
     e(  9 -  9) =     15.71075  eV     1   --> A'             
     e( 10 - 10) =     16.92762  eV     1   --> A''            
     e( 11 - 11) =     17.23900  eV     1   --> A'             
     e( 12 - 12) =     18.10721  eV     1   --> A''            
     e( 13 - 13) =     18.27298  eV     1   --> A'             
     e( 14 - 14) =     18.55023  eV     1   --> A''            
     e( 15 - 15) =     23.16542  eV     1   --> A'             

 **************************************************************************

 **************************************************************************

                    xk=(  -1.00000,   0.04000,   0.04000  )

     Band symmetry, C_s (m)     point group:

     e(  1 -  1) =     -5.30055  eV     1   --> A'             
     e(  2 -  2) =     -0.80691  eV     1   --> A'             
     e(  3 -  3) =      2.39887  eV     1   --> A'             
     e(  4 -  4) =      2.48111  eV     1   --> A''            
     e(  5 -  5) =      6.05364  eV     1   --> A'             
     e(  6 -  6) =      6.89291  eV     1   --> A'             
     e(  7 -  7) =     14.64094  eV     1   --> A''            
     e(  8 -  8) =     14.65253  eV     1   --> A'             
     e(  9 -  9) =     15.66949  eV     1   --> A'             
     e( 10 - 10) =     16.87526  eV     1   --> A''            
     e( 11 - 11) =     17.26445  eV     1   --> A'             
     e( 12 - 12) =     18.15436  eV     1   --> A''            
     e( 13 - 13) =     18.31043  eV     1   --> A'             
     e( 14 - 14) =     18.57859  eV     1   --> A''            
     e( 15 - 15) =     23.09331  eV     1   --> A'             

 **************************************************************************

 **************************************************************************

                    xk=(  -1.00000,   0.04500,   0.04500  )

     Band symmetry, C_s (m)     point group:

     e(  1 -  1) =     -5.30033  eV     1   --> A'             
     e(  2 -  2) =     -0.80464  eV     1   --> A'             
     e(  3 -  3) =      2.38043  eV     1   --> A'             
     e(  4 -  4) =      2.48371  eV     1   --> A''            
     e(  5 -  5) =      6.06801  eV     1   --> A'             
     e(  6 -  6) =      6.91162  eV     1   --> A'             
     e(  7 -  7) =     14.61736  eV     1   --> A''            
     e(  8 -  8) =     14.63194  eV     1   --> A'             
     e(  9 -  9) =     15.62475  eV     1   --> A'             
     e( 10 - 10) =     16.82057  eV     1   --> A''            
     e( 11 - 11) =     17.29189  eV     1   --> A'             
     e( 12 - 12) =     18.20316  eV     1   --> A''            
     e( 13 - 13) =     18.35200  eV     1   --> A'             
     e( 14 - 14) =     18.61037  eV     1   --> A''            
     e( 15 - 15) =     23.02074  eV     1   --> A'             

 **************************************************************************

 **************************************************************************

                    xk=(  -1.00000,   0.05000,   0.05000  )

     Band symmetry, C_s (m)     point group:

     e(  1 -  1) =     -5.30008  eV     1   --> A'             
     e(  2 -  2) =     -0.80212  eV     1   --> A'             
     e(  3 -  3) =      2.36020  eV     1   --> A'             
     e(  4 -  4) =      2.48660  eV     1   --> A''            
     e(  5 -  5) =      6.08343  eV     1   --> A'             
     e(  6 -  6) =      6.93279  eV     1   --> A'             
     e(  7 -  7) =     14.59141  eV     1   --> A''            
     e(  8 -  8) =     14.60929  eV     1   --> A'             
     e(  9 -  9) =     15.57697  eV     1   --> A'             
     e( 10 - 10) =     16.76404  eV     1   --> A''            
     e( 11 - 11) =     17.32103  eV     1   --> A'             
     e( 12 - 12) =     18.25313  eV     1   --> A''            
     e( 13 - 13) =     18.39737  eV     1   --> A'             
     e( 14 - 14) =     18.64542  eV     1   --> A''            
     e( 15 - 15) =     22.94781  eV     1   --> A'             

 **************************************************************************

 **************************************************************************

                    xk=(  -1.00000,   0.05500,   0.05500  )

     Band symmetry, C_s (m)     point group:

     e(  1 -  1) =     -5.29987  eV     1   --> A'             
     e(  2 -  2) =     -0.79936  eV     1   --> A'             
     e(  3 -  3) =      2.33827  eV     1   --> A'             
     e(  4 -  4) =      2.48980  eV     1   --> A''            
     e(  5 -  5) =      6.09973  eV     1   --> A'             
     e(  6 -  6) =      6.95651  eV     1   --> A'             
     e(  7 -  7) =     14.56321  eV     1   --> A''            
     e(  8 -  8) =     14.58467  eV     1   --> A'             
     e(  9 -  9) =     15.52654  eV     1   --> A'             
     e( 10 - 10) =     16.70609  eV     1   --> A''            
     e( 11 - 11) =     17.35163  eV     1   --> A'             
     e( 12 - 12) =     18.30391  eV     1   --> A''            
     e( 13 - 13) =     18.44621  eV     1   --> A'             
     e( 14 - 14) =     18.68357  eV     1   --> A''            
     e( 15 - 15) =     22.87463  eV     1   --> A'             

 **************************************************************************

 **************************************************************************

                    xk=(  -1.00000,   0.06000,   0.06000  )

     Band symmetry, C_s (m)     point group:

     e(  1 -  1) =     -5.29960  eV     1   --> A'             
     e(  2 -  2) =     -0.79632  eV     1   --> A'             
[...]
     e(  5 -  5) =      6.41452  eV     1   --> B              
     e(  6 -  6) =      7.26135  eV     1   --> A              
     e(  7 -  7) =     13.81466  eV     1   --> B              
     e(  8 -  8) =     14.36193  eV     1   --> A              
     e(  9 -  9) =     15.10317  eV     1   --> A              
     e( 10 - 10) =     16.86238  eV     1   --> B              
     e( 11 - 11) =     17.01252  eV     1   --> A              
     e( 12 - 12) =     18.36077  eV     1   --> B              
     e( 13 - 13) =     19.18982  eV     1   --> A              
     e( 14 - 14) =     19.56655  eV     1   --> B              
     e( 15 - 15) =     22.42458  eV     1   --> A              

 **************************************************************************

 **************************************************************************

                    xk=(  -1.00000,   0.14000,   0.00000  )

     Band symmetry, C_2  (2)    point group:

     e(  1 -  1) =     -5.29604  eV     1   --> B              
     e(  2 -  2) =     -0.76416  eV     1   --> A              
     e(  3 -  3) =      2.26632  eV     1   --> A              
     e(  4 -  4) =      2.32131  eV     1   --> B              
     e(  5 -  5) =      6.36318  eV     1   --> B              
     e(  6 -  6) =      7.20789  eV     1   --> A              
     e(  7 -  7) =     13.91617  eV     1   --> B              
     e(  8 -  8) =     14.43661  eV     1   --> A              
     e(  9 -  9) =     15.14043  eV     1   --> A              
     e( 10 - 10) =     16.87613  eV     1   --> B              
     e( 11 - 11) =     17.01521  eV     1   --> A              
     e( 12 - 12) =     18.35152  eV     1   --> B              
     e( 13 - 13) =     19.07336  eV     1   --> A              
     e( 14 - 14) =     19.44499  eV     1   --> B              
     e( 15 - 15) =     22.49419  eV     1   --> A              

 **************************************************************************

 **************************************************************************

                    xk=(  -1.00000,   0.13000,   0.00000  )

     Band symmetry, C_2  (2)    point group:

     e(  1 -  1) =     -5.29681  eV     1   --> B              
     e(  2 -  2) =     -0.77106  eV     1   --> A              
     e(  3 -  3) =      2.29211  eV     1   --> A              
     e(  4 -  4) =      2.33970  eV     1   --> B              
     e(  5 -  5) =      6.31470  eV     1   --> B              
     e(  6 -  6) =      7.15743  eV     1   --> A              
     e(  7 -  7) =     14.01430  eV     1   --> B              
     e(  8 -  8) =     14.50091  eV     1   --> A              
     e(  9 -  9) =     15.18608  eV     1   --> A              
     e( 10 - 10) =     16.89142  eV     1   --> B              
     e( 11 - 11) =     17.01868  eV     1   --> A              
     e( 12 - 12) =     18.34226  eV     1   --> B              
     e( 13 - 13) =     18.95791  eV     1   --> A              
     e( 14 - 14) =     19.32611  eV     1   --> B              
     e( 15 - 15) =     22.56588  eV     1   --> A              

 **************************************************************************

 **************************************************************************

                    xk=(  -1.00000,   0.12000,   0.00000  )

     Band symmetry, C_2  (2)    point group:

     e(  1 -  1) =     -5.29749  eV     1   --> B              
     e(  2 -  2) =     -0.77749  eV     1   --> A              
     e(  3 -  3) =      2.31663  eV     1   --> A              
     e(  4 -  4) =      2.35732  eV     1   --> B              
     e(  5 -  5) =      6.26922  eV     1   --> B              
     e(  6 -  6) =      7.11012  eV     1   --> A              
     e(  7 -  7) =     14.10854  eV     1   --> B              
     e(  8 -  8) =     14.55445  eV     1   --> A              
     e(  9 -  9) =     15.24011  eV     1   --> A              
     e( 10 - 10) =     16.90836  eV     1   --> B              
     e( 11 - 11) =     17.02305  eV     1   --> A              
     e( 12 - 12) =     18.33293  eV     1   --> B              
     e( 13 - 13) =     18.84386  eV     1   --> A              
     e( 14 - 14) =     19.21051  eV     1   --> B              
     e( 15 - 15) =     22.63957  eV     1   --> A              

 **************************************************************************

 **************************************************************************

                    xk=(  -1.00000,   0.11000,   0.00000  )

     Band symmetry, C_2  (2)    point group:

     e(  1 -  1) =     -5.29806  eV     1   --> B              
     e(  2 -  2) =     -0.78345  eV     1   --> A              
     e(  3 -  3) =      2.33976  eV     1   --> A              
     e(  4 -  4) =      2.37406  eV     1   --> B              
     e(  5 -  5) =      6.22684  eV     1   --> B              
     e(  6 -  6) =      7.06606  eV     1   --> A              
     e(  7 -  7) =     14.19839  eV     1   --> B              
     e(  8 -  8) =     14.59769  eV     1   --> A              
     e(  9 -  9) =     15.30151  eV     1   --> A              
     e( 10 - 10) =     16.92700  eV     1   --> B              
     e( 11 - 11) =     17.02849  eV     1   --> A              
     e( 12 - 12) =     18.32334  eV     1   --> B              
     e( 13 - 13) =     18.73163  eV     1   --> A              
     e( 14 - 14) =     19.09885  eV     1   --> B              
     e( 15 - 15) =     22.71517  eV     1   --> A              

 **************************************************************************

 **************************************************************************

                    xk=(  -1.00000,   0.10000,   0.00000  )

     Band symmetry, C_2  (2)    point group:

     e(  1 -  1) =     -5.29865  eV     1   --> B              
     e(  2 -  2) =     -0.78893  eV     1   --> A              
     e(  3 -  3) =      2.36136  eV     1   --> A              
     e(  4 -  4) =      2.38979  eV     1   --> B              
     e(  5 -  5) =      6.18766  eV     1   --> B              
     e(  6 -  6) =      7.02535  eV     1   --> A              
     e(  7 -  7) =     14.28329  eV     1   --> B              
     e(  8 -  8) =     14.63181  eV     1   --> A              
     e(  9 -  9) =     15.36851  eV     1   --> A              
     e( 10 - 10) =     16.94737  eV     1   --> B              
     e( 11 - 11) =     17.03512  eV     1   --> A              
     e( 12 - 12) =     18.31316  eV     1   --> B              
     e( 13 - 13) =     18.62175  eV     1   --> A              
     e( 14 - 14) =     18.99195  eV     1   --> B              
     e( 15 - 15) =     22.79260  eV     1   --> A              

 **************************************************************************

 **************************************************************************

                    xk=(  -1.00000,   0.09000,   0.00000  )

     Band symmetry, C_2  (2)    point group:

     e(  1 -  1) =     -5.29916  eV     1   --> B              
     e(  2 -  2) =     -0.79392  eV     1   --> A              
     e(  3 -  3) =      2.38134  eV     1   --> A              
     e(  4 -  4) =      2.40441  eV     1   --> B              
     e(  5 -  5) =      6.15181  eV     1   --> B              
     e(  6 -  6) =      6.98813  eV     1   --> A              
     e(  7 -  7) =     14.36265  eV     1   --> B              
     e(  8 -  8) =     14.65832  eV     1   --> A              
     e(  9 -  9) =     15.43882  eV     1   --> A              
     e( 10 - 10) =     16.96941  eV     1   --> B              
     e( 11 - 11) =     17.04314  eV     1   --> A              
     e( 12 - 12) =     18.30204  eV     1   --> B              
     e( 13 - 13) =     18.51484  eV     1   --> A              
     e( 14 - 14) =     18.89089  eV     1   --> B              
     e( 15 - 15) =     22.87178  eV     1   --> A              

 **************************************************************************

 **************************************************************************

                    xk=(  -1.00000,   0.08000,   0.00000  )

     Band symmetry, C_2  (2)    point group:

     e(  1 -  1) =     -5.29964  eV     1   --> B              
     e(  2 -  2) =     -0.79841  eV     1   --> A              
     e(  3 -  3) =      2.39956  eV     1   --> A              
     e(  4 -  4) =      2.41783  eV     1   --> B              
     e(  5 -  5) =      6.11939  eV     1   --> B              
     e(  6 -  6) =      6.95449  eV     1   --> A              
     e(  7 -  7) =     14.43588  eV     1   --> B              
     e(  8 -  8) =     14.67876  eV     1   --> A              
     e(  9 -  9) =     15.51004  eV     1   --> A              
     e( 10 - 10) =     16.99296  eV     1   --> B              
     e( 11 - 11) =     17.05269  eV     1   --> A              
     e( 12 - 12) =     18.28944  eV     1   --> B              
     e( 13 - 13) =     18.41168  eV     1   --> A              
     e( 14 - 14) =     18.79700  eV     1   --> B              
     e( 15 - 15) =     22.95263  eV     1   --> A              

 **************************************************************************

 **************************************************************************

                    xk=(  -1.00000,   0.07000,   0.00000  )

     Band symmetry, C_2  (2)    point group:

     e(  1 -  1) =     -5.30008  eV     1   --> B              
     e(  2 -  2) =     -0.80239  eV     1   --> A              
     e(  3 -  3) =      2.41592  eV     1   --> A              
     e(  4 -  4) =      2.42993  eV     1   --> B              
     e(  5 -  5) =      6.09051  eV     1   --> B              
     e(  6 -  6) =      6.92453  eV     1   --> A              
     e(  7 -  7) =     14.50234  eV     1   --> B              
     e(  8 -  8) =     14.69445  eV     1   --> A              
     e(  9 -  9) =     15.57982  eV     1   --> A              
     e( 10 - 10) =     17.01769  eV     1   --> B              
     e( 11 - 11) =     17.06386  eV     1   --> A              
     e( 12 - 12) =     18.27464  eV     1   --> B              
     e( 13 - 13) =     18.31324  eV     1   --> A              
     e( 14 - 14) =     18.71197  eV     1   --> B              
     e( 15 - 15) =     23.03505  eV     1   --> A              

 **************************************************************************

 **************************************************************************

                    xk=(  -1.00000,   0.06000,   0.00000  )

     Band symmetry, C_2  (2)    point group:

     e(  1 -  1) =     -5.30040  eV     1   --> B              
     e(  2 -  2) =     -0.80584  eV     1   --> A              
     e(  3 -  3) =      2.43033  eV     1   --> A              
     e(  4 -  4) =      2.44064  eV     1   --> B              
     e(  5 -  5) =      6.06527  eV     1   --> B              
     e(  6 -  6) =      6.89836  eV     1   --> A              
     e(  7 -  7) =     14.56145  eV     1   --> B              
     e(  8 -  8) =     14.70644  eV     1   --> A              
     e(  9 -  9) =     15.64594  eV     1   --> A              
     e( 10 - 10) =     17.04305  eV     1   --> B              
     e( 11 - 11) =     17.07663  eV     1   --> A              
     e( 12 - 12) =     18.22074  eV     1   --> A              
     e( 13 - 13) =     18.25693  eV     1   --> B              
     e( 14 - 14) =     18.63776  eV     1   --> B              
     e( 15 - 15) =     23.11894  eV     1   --> A              

 **************************************************************************

 **************************************************************************

                    xk=(  -1.00000,   0.05000,   0.00000  )

     Band symmetry, C_2  (2)    point group:

     e(  1 -  1) =     -5.30066  eV     1   --> B              
     e(  2 -  2) =     -0.80877  eV     1   --> A              
     e(  3 -  3) =      2.44268  eV     1   --> A              
     e(  4 -  4) =      2.44986  eV     1   --> B              
     e(  5 -  5) =      6.04375  eV     1   --> B              
     e(  6 -  6) =      6.87606  eV     1   --> A              
     e(  7 -  7) =     14.61261  eV     1   --> B              
     e(  8 -  8) =     14.71553  eV     1   --> A              
     e(  9 -  9) =     15.70629  eV     1   --> A              
     e( 10 - 10) =     17.06823  eV     1   --> B              
     e( 11 - 11) =     17.09078  eV     1   --> A              
     e( 12 - 12) =     18.13575  eV     1   --> A              
     e( 13 - 13) =     18.23576  eV     1   --> B              
     e( 14 - 14) =     18.57623  eV     1   --> B              
     e( 15 - 15) =     23.20419  eV     1   --> A              

 **************************************************************************

 **************************************************************************

                    xk=(  -1.00000,   0.04000,   0.00000  )

     Band symmetry, C_2  (2)    point group:

     e(  1 -  1) =     -5.30093  eV     1   --> B              
     e(  2 -  2) =     -0.81119  eV     1   --> A              
     e(  3 -  3) =      2.45291  eV     1   --> A              
     e(  4 -  4) =      2.45750  eV     1   --> B              
     e(  5 -  5) =      6.02603  eV     1   --> B              
     e(  6 -  6) =      6.85770  eV     1   --> A              
     e(  7 -  7) =     14.65528  eV     1   --> B              
     e(  8 -  8) =     14.72231  eV     1   --> A              
     e(  9 -  9) =     15.75890  eV     1   --> A              
     e( 10 - 10) =     17.09212  eV     1   --> B              
     e( 11 - 11) =     17.10568  eV     1   --> A              
     e( 12 - 12) =     18.06027  eV     1   --> A              
     e( 13 - 13) =     18.21165  eV     1   --> B              
     e( 14 - 14) =     18.52853  eV     1   --> B              
     e( 15 - 15) =     23.29064  eV     1   --> A              

 **************************************************************************

 **************************************************************************

                    xk=(  -1.00000,   0.03000,   0.00000  )

     Band symmetry, C_2  (2)    point group:

     e(  1 -  1) =     -5.30114  eV     1   --> B              
     e(  2 -  2) =     -0.81307  eV     1   --> A              
     e(  3 -  3) =      2.46093  eV     1   --> A              
     e(  4 -  4) =      2.46352  eV     1   --> B              
     e(  5 -  5) =      6.01217  eV     1   --> B              
     e(  6 -  6) =      6.84334  eV     1   --> A              
     e(  7 -  7) =     14.68900  eV     1   --> B              
     e(  8 -  8) =     14.72721  eV     1   --> A              
     e(  9 -  9) =     15.80199  eV     1   --> A              
     e( 10 - 10) =     17.11329  eV     1   --> B              
     e( 11 - 11) =     17.12027  eV     1   --> A              
     e( 12 - 12) =     17.99676  eV     1   --> A              
     e( 13 - 13) =     18.18687  eV     1   --> B              
     e( 14 - 14) =     18.49432  eV     1   --> B              
     e( 15 - 15) =     23.37809  eV     1   --> A              

 **************************************************************************

 **************************************************************************

                    xk=(  -1.00000,   0.02000,   0.00000  )

     Band symmetry, C_2  (2)    point group:

     e(  1 -  1) =     -5.30129  eV     1   --> B              
     e(  2 -  2) =     -0.81441  eV     1   --> A              
     e(  3 -  3) =      2.46670  eV     1   --> A              
     e(  4 -  4) =      2.46785  eV     1   --> B              
     e(  5 -  5) =      6.00224  eV     1   --> B              
     e(  6 -  6) =      6.83305  eV     1   --> A              
     e(  7 -  7) =     14.71338  eV     1   --> B              
     e(  8 -  8) =     14.73052  eV     1   --> A              
     e(  9 -  9) =     15.83399  eV     1   --> A              
     e( 10 - 10) =     17.13012  eV     1   --> B              
     e( 11 - 11) =     17.13291  eV     1   --> A              
     e( 12 - 12) =     17.94813  eV     1   --> A              
     e( 13 - 13) =     18.16504  eV     1   --> B              
     e( 14 - 14) =     18.47201  eV     1   --> B              
     e( 15 - 15) =     23.46623  eV     1   --> A              

 **************************************************************************

 **************************************************************************

                    xk=(  -1.00000,   0.01000,   0.00000  )

     Band symmetry, C_2  (2)    point group:

     e(  1 -  1) =     -5.30138  eV     1   --> B              
     e(  2 -  2) =     -0.81522  eV     1   --> A              
     e(  3 -  3) =      2.47018  eV     1   --> A              
     e(  4 -  4) =      2.47047  eV     1   --> B              
     e(  5 -  5) =      5.99626  eV     1   --> B              
     e(  6 -  6) =      6.82687  eV     1   --> A              
     e(  7 -  7) =     14.72812  eV     1   --> B              
     e(  8 -  8) =     14.73243  eV     1   --> A              
     e(  9 -  9) =     15.85371  eV     1   --> A              
     e( 10 - 10) =     17.14102  eV     1   --> B              
     e( 11 - 11) =     17.14166  eV     1   --> A              
     e( 12 - 12) =     17.91734  eV     1   --> A              
     e( 13 - 13) =     18.15004  eV     1   --> B              
     e( 14 - 14) =     18.45961  eV     1   --> B              
     e( 15 - 15) =     23.55438  eV     1   -->   ?

 **************************************************************************

 **************************************************************************

                    xk=(  -1.00000,   0.00000,   0.00000  )

     point group D_2d (-42m)
     there are  5 classes
     the character table:

       E     2S4   C2    2C2'  2s_d 
A_1    1.00  1.00  1.00  1.00  1.00
A_2    1.00  1.00  1.00 -1.00 -1.00
B_1    1.00 -1.00  1.00  1.00 -1.00
B_2    1.00 -1.00  1.00 -1.00  1.00
E      2.00  0.00 -2.00  0.00  0.00

     the symmetry operations in each class and the name of the first element:

     E        1
                                                                 
     2S4      7    8
                                                                 
     C2       4
                                                                 
     2C2'     2    3
                                                                 
     2s_d     5    6
                                                                 

     Band symmetry, D_2d (-42m) point group:

     e(  1 -  1) =     -5.30141  eV     1   --> B_2  X_3  W_2  
     e(  2 -  2) =     -0.81549  eV     1   --> A_1  X_1  W_1  
     e(  3 -  4) =      2.47134  eV     2   --> E    X_5  W_3  
     e(  5 -  5) =      5.99426  eV     1   --> B_2  X_3  W_2  
     e(  6 -  6) =      6.82480  eV     1   --> A_1  X_1  W_1  
     e(  7 -  8) =     14.73305  eV     2   --> E    X_5  W_3  
     e(  9 -  9) =     15.86037  eV     1   --> A_1  X_1  W_1  
     e( 10 - 11) =     17.14480  eV     2   --> E    X_5  W_3  
     e( 12 - 12) =     17.90678  eV     1   --> B_1  X_2  W_1' 
     e( 13 - 13) =     18.14469  eV     1   --> B_2  X_3  W_2  
     e( 14 - 14) =     18.45564  eV     1   --> A_2  X_4  W_2' 
     e( 15 - 15) =     23.62730  eV     1   -->   ?

 **************************************************************************

     BANDS        :     19.25s CPU     21.44s WALL


   This run was terminated on:  10:31:59   6Oct2021            

=------------------------------------------------------------------------------=
   JOB DONE.
=------------------------------------------------------------------------------=
