
     Program PWSCF v.6.7MaX starts on  6Oct2021 at 10:31:21 

     This program is part of the open-source Quantum ESPRESSO suite
     for quantum simulation of materials; please cite
         "P. Giannozzi et al., J. Phys.:Condens. Matter 21 395502 (2009);
         "P. Giannozzi et al., J. Phys.:Condens. Matter 29 465901 (2017);
          URL http://www.quantum-espresso.org", 
     in publications or presentations arising from this work. More details at
     http://www.quantum-espresso.org/quote

     Parallel version (MPI), running on    84 processors

     MPI processes distributed on     3 nodes
     K-points division:     npool     =       7
     R & G space division:  proc/nbgrp/npool/nimage =      12
     Waiting for input...
     Reading input from standard input

     Current dimensions of program PWSCF are:
     Max number of different atomic species (ntypx) = 10
     Max number of k-points (npk) =  40000
     Max angular momentum in pseudopotentials (lmaxx) =  3

     Atomic positions and unit cell read from directory:
     run_output/AlAs.save/
     Atomic positions from file used, from input discarded


     Subspace diagonalization in iterative solution of the eigenvalue problem:
     one sub-group per band group will be used
     scalapack distributed-memory algorithm (size of sub-group:  3*  3 procs)


     Parallelization info
     --------------------
     sticks:   dense  smooth     PW     G-vecs:    dense   smooth      PW
     Min          53      53     16                  867      867     150
     Max          54      54     17                  869      869     152
     Sum         637     637    199                10417    10417    1807



     bravais-lattice index     =            2
     lattice parameter (alat)  =      10.6959  a.u.
     unit-cell volume          =     305.9088 (a.u.)^3
     number of atoms/cell      =            2
     number of atomic types    =            2
     number of electrons       =         8.00
     number of Kohn-Sham states=           15
     kinetic-energy cutoff     =      40.0000  Ry
     charge density cutoff     =     160.0000  Ry
     Exchange-correlation= SLA  PZ   NOGX NOGC
                           (   1   1   0   0   0   0   0)

     celldm(1)=  10.695900  celldm(2)=   0.000000  celldm(3)=   0.000000
     celldm(4)=   0.000000  celldm(5)=   0.000000  celldm(6)=   0.000000

     crystal axes: (cart. coord. in units of alat)
               a(1) = (  -0.500000   0.000000   0.500000 )  
               a(2) = (   0.000000   0.500000   0.500000 )  
               a(3) = (  -0.500000   0.500000   0.000000 )  

     reciprocal axes: (cart. coord. in units 2 pi/alat)
               b(1) = ( -1.000000 -1.000000  1.000000 )  
               b(2) = (  1.000000  1.000000  1.000000 )  
               b(3) = ( -1.000000  1.000000 -1.000000 )  


     PseudoPot. # 1 for Al read from file:
     PPs/Al.pz-vbc.UPF
     MD5 check sum: f06ceae8da0fe5c02c98e3688433298c
     Pseudo is Norm-conserving, Zval =  3.0
     Generated by new atomic code, or converted to UPF format
     Using radial grid of  171 points,  2 beta functions with: 
                l(1) =   0
                l(2) =   1

     PseudoPot. # 2 for As read from file:
     PPs/As.pz-bhs.UPF
     MD5 check sum: 2c53d8691f3db84e0fbdf898b12bc293
     Pseudo is Norm-conserving, Zval =  5.0
     Generated by new atomic code, or converted to UPF format
     Using radial grid of  525 points,  2 beta functions with: 
                l(1) =   0
                l(2) =   1

     atomic species   valence    mass     pseudopotential
        Al             3.00     1.00000     Al( 1.00)
        As             5.00     1.00000     As( 1.00)

     24 Sym. Ops. (no inversion) found


                                    s                        frac. trans.

      isym =  1     identity                                     

 cryst.   s( 1) = (     1          0          0      )
                  (     0          1          0      )
                  (     0          0          1      )

 cart.    s( 1) = (  1.0000000  0.0000000  0.0000000 )
                  (  0.0000000  1.0000000  0.0000000 )
                  (  0.0000000  0.0000000  1.0000000 )


      isym =  2     180 deg rotation - cart. axis [0,0,1]        

 cryst.   s( 2) = (     0          1         -1      )
                  (     1          0         -1      )
                  (     0          0         -1      )

 cart.    s( 2) = ( -1.0000000  0.0000000  0.0000000 )
                  (  0.0000000 -1.0000000  0.0000000 )
                  (  0.0000000  0.0000000  1.0000000 )


      isym =  3     180 deg rotation - cart. axis [0,1,0]        

 cryst.   s( 3) = (    -1          0          0      )
                  (    -1          0          1      )
                  (    -1          1          0      )

 cart.    s( 3) = ( -1.0000000  0.0000000  0.0000000 )
                  (  0.0000000  1.0000000  0.0000000 )
                  (  0.0000000  0.0000000 -1.0000000 )


      isym =  4     180 deg rotation - cart. axis [1,0,0]        

 cryst.   s( 4) = (     0         -1          1      )
                  (     0         -1          0      )
                  (     1         -1          0      )

 cart.    s( 4) = (  1.0000000  0.0000000  0.0000000 )
                  (  0.0000000 -1.0000000  0.0000000 )
                  (  0.0000000  0.0000000 -1.0000000 )


      isym =  5     120 deg rotation - cart. axis [-1,-1,-1]     

 cryst.   s( 5) = (    -1          0          1      )
                  (    -1          1          0      )
                  (    -1          0          0      )

 cart.    s( 5) = (  0.0000000  1.0000000  0.0000000 )
                  (  0.0000000  0.0000000  1.0000000 )
                  (  1.0000000  0.0000000  0.0000000 )


      isym =  6     120 deg rotation - cart. axis [-1,1,1]       

 cryst.   s( 6) = (     0          1          0      )
                  (     0          0          1      )
                  (     1          0          0      )

 cart.    s( 6) = (  0.0000000 -1.0000000  0.0000000 )
                  (  0.0000000  0.0000000  1.0000000 )
                  ( -1.0000000  0.0000000  0.0000000 )


      isym =  7     120 deg rotation - cart. axis [1,1,-1]       

 cryst.   s( 7) = (     1          0         -1      )
                  (     0          0         -1      )
                  (     0          1         -1      )

 cart.    s( 7) = (  0.0000000  1.0000000  0.0000000 )
                  (  0.0000000  0.0000000 -1.0000000 )
                  ( -1.0000000  0.0000000  0.0000000 )


      isym =  8     120 deg rotation - cart. axis [1,-1,1]       

 cryst.   s( 8) = (     0         -1          0      )
                  (     1         -1          0      )
                  (     0         -1          1      )

 cart.    s( 8) = (  0.0000000 -1.0000000  0.0000000 )
                  (  0.0000000  0.0000000 -1.0000000 )
                  (  1.0000000  0.0000000  0.0000000 )


      isym =  9     120 deg rotation - cart. axis [1,1,1]        

 cryst.   s( 9) = (     0          0         -1      )
                  (     0          1         -1      )
                  (     1          0         -1      )

 cart.    s( 9) = (  0.0000000  0.0000000  1.0000000 )
                  (  1.0000000  0.0000000  0.0000000 )
                  (  0.0000000  1.0000000  0.0000000 )


      isym = 10     120 deg rotation - cart. axis [-1,1,-1]      

 cryst.   s(10) = (    -1          1          0      )
                  (    -1          0          0      )
                  (    -1          0          1      )

 cart.    s(10) = (  0.0000000  0.0000000  1.0000000 )
                  ( -1.0000000  0.0000000  0.0000000 )
                  (  0.0000000 -1.0000000  0.0000000 )


      isym = 11     120 deg rotation - cart. axis [1,-1,-1]      

 cryst.   s(11) = (     0          0          1      )
                  (     1          0          0      )
                  (     0          1          0      )

 cart.    s(11) = (  0.0000000  0.0000000 -1.0000000 )
                  ( -1.0000000  0.0000000  0.0000000 )
                  (  0.0000000  1.0000000  0.0000000 )


      isym = 12     120 deg rotation - cart. axis [-1,-1,1]      

 cryst.   s(12) = (     1         -1          0      )
                  (     0         -1          1      )
                  (     0         -1          0      )

 cart.    s(12) = (  0.0000000  0.0000000 -1.0000000 )
                  (  1.0000000  0.0000000  0.0000000 )
                  (  0.0000000 -1.0000000  0.0000000 )


      isym = 13     inv. 180 deg rotation - cart. axis [1,1,0]   

 cryst.   s(13) = (     0          1          0      )
                  (     1          0          0      )
                  (     0          0          1      )

 cart.    s(13) = (  0.0000000 -1.0000000  0.0000000 )
                  ( -1.0000000  0.0000000  0.0000000 )
                  (  0.0000000  0.0000000  1.0000000 )


      isym = 14     inv. 180 deg rotation - cart. axis [1,-1,0]  

 cryst.   s(14) = (     1          0         -1      )
                  (     0          1         -1      )
                  (     0          0         -1      )

 cart.    s(14) = (  0.0000000  1.0000000  0.0000000 )
                  (  1.0000000  0.0000000  0.0000000 )
                  (  0.0000000  0.0000000  1.0000000 )


      isym = 15     inv.  90 deg rotation - cart. axis [0,0,-1]  

 cryst.   s(15) = (     0         -1          0      )
                  (     0         -1          1      )
                  (     1         -1          0      )

 cart.    s(15) = (  0.0000000 -1.0000000  0.0000000 )
                  (  1.0000000  0.0000000  0.0000000 )
                  (  0.0000000  0.0000000 -1.0000000 )


      isym = 16     inv.  90 deg rotation - cart. axis [0,0,1]   

 cryst.   s(16) = (    -1          0          1      )
                  (    -1          0          0      )
                  (    -1          1          0      )

 cart.    s(16) = (  0.0000000  1.0000000  0.0000000 )
                  ( -1.0000000  0.0000000  0.0000000 )
                  (  0.0000000  0.0000000 -1.0000000 )


      isym = 17     inv. 180 deg rotation - cart. axis [1,0,1]   

 cryst.   s(17) = (     1          0          0      )
                  (     0          0          1      )
                  (     0          1          0      )

 cart.    s(17) = (  0.0000000  0.0000000 -1.0000000 )
                  (  0.0000000  1.0000000  0.0000000 )
                  ( -1.0000000  0.0000000  0.0000000 )


      isym = 18     inv. 180 deg rotation - cart. axis [-1,0,1]  

 cryst.   s(18) = (    -1          0          0      )
                  (    -1          1          0      )
                  (    -1          0          1      )

 cart.    s(18) = (  0.0000000  0.0000000  1.0000000 )
                  (  0.0000000  1.0000000  0.0000000 )
                  (  1.0000000  0.0000000  0.0000000 )


      isym = 19     inv.  90 deg rotation - cart. axis [0,1,0]   

 cryst.   s(19) = (     0         -1          1      )
                  (     1         -1          0      )
                  (     0         -1          0      )

 cart.    s(19) = (  0.0000000  0.0000000 -1.0000000 )
                  (  0.0000000 -1.0000000  0.0000000 )
                  (  1.0000000  0.0000000  0.0000000 )


      isym = 20     inv.  90 deg rotation - cart. axis [0,-1,0]  

 cryst.   s(20) = (     0          1         -1      )
                  (     0          0         -1      )
                  (     1          0         -1      )

 cart.    s(20) = (  0.0000000  0.0000000  1.0000000 )
                  (  0.0000000 -1.0000000  0.0000000 )
                  ( -1.0000000  0.0000000  0.0000000 )


      isym = 21     inv. 180 deg rotation - cart. axis [0,1,1]   

 cryst.   s(21) = (     1         -1          0      )
                  (     0         -1          0      )
                  (     0         -1          1      )

 cart.    s(21) = (  1.0000000  0.0000000  0.0000000 )
                  (  0.0000000  0.0000000 -1.0000000 )
                  (  0.0000000 -1.0000000  0.0000000 )


      isym = 22     inv. 180 deg rotation - cart. axis [0,1,-1]  

 cryst.   s(22) = (     0          0          1      )
                  (     0          1          0      )
                  (     1          0          0      )

 cart.    s(22) = (  1.0000000  0.0000000  0.0000000 )
                  (  0.0000000  0.0000000  1.0000000 )
                  (  0.0000000  1.0000000  0.0000000 )


      isym = 23     inv.  90 deg rotation - cart. axis [-1,0,0]  

 cryst.   s(23) = (     0          0         -1      )
                  (     1          0         -1      )
                  (     0          1         -1      )

 cart.    s(23) = ( -1.0000000  0.0000000  0.0000000 )
                  (  0.0000000  0.0000000 -1.0000000 )
                  (  0.0000000  1.0000000  0.0000000 )


      isym = 24     inv.  90 deg rotation - cart. axis [1,0,0]   

 cryst.   s(24) = (    -1          1          0      )
                  (    -1          0          1      )
                  (    -1          0          0      )

 cart.    s(24) = ( -1.0000000  0.0000000  0.0000000 )
                  (  0.0000000  0.0000000  1.0000000 )
                  (  0.0000000 -1.0000000  0.0000000 )


     point group T_d (-43m) 
     there are  5 classes
     the character table:

       E     8C3   3C2   6S4   6s_d 
A_1    1.00  1.00  1.00  1.00  1.00
A_2    1.00  1.00  1.00 -1.00 -1.00
E      2.00 -1.00  2.00  0.00  0.00
T_1    3.00  0.00 -1.00  1.00 -1.00
T_2    3.00  0.00 -1.00 -1.00  1.00

     the symmetry operations in each class and the name of the first element:

     E        1
          identity                                               
     8C3      5    7    8    6   12    9   10   11
          120 deg rotation - cart. axis [-1,-1,-1]               
     3C2      2    3    4
          180 deg rotation - cart. axis [0,0,1]                  
     6S4     15   16   20   19   23   24
          inv.  90 deg rotation - cart. axis [0,0,-1]            
     6s_d    13   14   17   18   21   22
          inv. 180 deg rotation - cart. axis [1,1,0]             

   Cartesian axes

     site n.     atom                  positions (alat units)
         1           Al  tau(   1) = (   0.0000000   0.0000000   0.0000000  )
         2           As  tau(   2) = (  -0.2500000   0.2500000   0.2500000  )

   Crystallographic axes

     site n.     atom                  positions (cryst. coord.)
         1           Al  tau(   1) = (  0.0000000  0.0000000  0.0000000  )
         2           As  tau(   2) = (  0.2500000  0.2500000  0.2500000  )

     number of k points=   302
                       cart. coord. in units 2pi/alat
        k(    1) = (   0.0000000   0.0000000   0.0000000), wk =   0.0066225
        k(    2) = (  -0.0200000   0.0000000   0.0000000), wk =   0.0066225
        k(    3) = (  -0.0400000   0.0000000   0.0000000), wk =   0.0066225
        k(    4) = (  -0.0600000   0.0000000   0.0000000), wk =   0.0066225
        k(    5) = (  -0.0800000   0.0000000   0.0000000), wk =   0.0066225
        k(    6) = (  -0.1000000   0.0000000   0.0000000), wk =   0.0066225
        k(    7) = (  -0.1200000   0.0000000   0.0000000), wk =   0.0066225
        k(    8) = (  -0.1400000   0.0000000   0.0000000), wk =   0.0066225
        k(    9) = (  -0.1600000   0.0000000   0.0000000), wk =   0.0066225
        k(   10) = (  -0.1800000   0.0000000   0.0000000), wk =   0.0066225
        k(   11) = (  -0.2000000   0.0000000   0.0000000), wk =   0.0066225
        k(   12) = (  -0.2200000   0.0000000   0.0000000), wk =   0.0066225
        k(   13) = (  -0.2400000   0.0000000   0.0000000), wk =   0.0066225
        k(   14) = (  -0.2600000   0.0000000   0.0000000), wk =   0.0066225
        k(   15) = (  -0.2800000   0.0000000   0.0000000), wk =   0.0066225
        k(   16) = (  -0.3000000   0.0000000   0.0000000), wk =   0.0066225
        k(   17) = (  -0.3200000   0.0000000   0.0000000), wk =   0.0066225
        k(   18) = (  -0.3400000   0.0000000   0.0000000), wk =   0.0066225
        k(   19) = (  -0.3600000   0.0000000   0.0000000), wk =   0.0066225
        k(   20) = (  -0.3800000   0.0000000   0.0000000), wk =   0.0066225
        k(   21) = (  -0.4000000   0.0000000   0.0000000), wk =   0.0066225
        k(   22) = (  -0.4200000   0.0000000   0.0000000), wk =   0.0066225
        k(   23) = (  -0.4400000   0.0000000   0.0000000), wk =   0.0066225
        k(   24) = (  -0.4600000   0.0000000   0.0000000), wk =   0.0066225
        k(   25) = (  -0.4800000   0.0000000   0.0000000), wk =   0.0066225
        k(   26) = (  -0.5000000   0.0000000   0.0000000), wk =   0.0066225
        k(   27) = (  -0.5200000   0.0000000   0.0000000), wk =   0.0066225
        k(   28) = (  -0.5400000   0.0000000   0.0000000), wk =   0.0066225
        k(   29) = (  -0.5600000   0.0000000   0.0000000), wk =   0.0066225
        k(   30) = (  -0.5800000   0.0000000   0.0000000), wk =   0.0066225
        k(   31) = (  -0.6000000   0.0000000   0.0000000), wk =   0.0066225
        k(   32) = (  -0.6200000   0.0000000   0.0000000), wk =   0.0066225
        k(   33) = (  -0.6400000   0.0000000   0.0000000), wk =   0.0066225
        k(   34) = (  -0.6600000   0.0000000   0.0000000), wk =   0.0066225
        k(   35) = (  -0.6800000   0.0000000   0.0000000), wk =   0.0066225
        k(   36) = (  -0.7000000   0.0000000   0.0000000), wk =   0.0066225
        k(   37) = (  -0.7200000   0.0000000   0.0000000), wk =   0.0066225
        k(   38) = (  -0.7400000   0.0000000   0.0000000), wk =   0.0066225
        k(   39) = (  -0.7600000   0.0000000   0.0000000), wk =   0.0066225
        k(   40) = (  -0.7800000   0.0000000   0.0000000), wk =   0.0066225
        k(   41) = (  -0.8000000   0.0000000   0.0000000), wk =   0.0066225
        k(   42) = (  -0.8200000   0.0000000   0.0000000), wk =   0.0066225
        k(   43) = (  -0.8400000   0.0000000   0.0000000), wk =   0.0066225
        k(   44) = (  -0.8600000   0.0000000   0.0000000), wk =   0.0066225
        k(   45) = (  -0.8800000   0.0000000   0.0000000), wk =   0.0066225
        k(   46) = (  -0.9000000   0.0000000   0.0000000), wk =   0.0066225
        k(   47) = (  -0.9200000   0.0000000   0.0000000), wk =   0.0066225
        k(   48) = (  -0.9400000   0.0000000   0.0000000), wk =   0.0066225
        k(   49) = (  -0.9600000   0.0000000   0.0000000), wk =   0.0066225
        k(   50) = (  -0.9800000   0.0000000   0.0000000), wk =   0.0066225
        k(   51) = (  -1.0000000   0.0000000   0.0000000), wk =   0.0066225
        k(   52) = (  -1.0000000   0.0050000   0.0050000), wk =   0.0066225
        k(   53) = (  -1.0000000   0.0100000   0.0100000), wk =   0.0066225
        k(   54) = (  -1.0000000   0.0150000   0.0150000), wk =   0.0066225
        k(   55) = (  -1.0000000   0.0200000   0.0200000), wk =   0.0066225
        k(   56) = (  -1.0000000   0.0250000   0.0250000), wk =   0.0066225
        k(   57) = (  -1.0000000   0.0300000   0.0300000), wk =   0.0066225
        k(   58) = (  -1.0000000   0.0350000   0.0350000), wk =   0.0066225
        k(   59) = (  -1.0000000   0.0400000   0.0400000), wk =   0.0066225
        k(   60) = (  -1.0000000   0.0450000   0.0450000), wk =   0.0066225
        k(   61) = (  -1.0000000   0.0500000   0.0500000), wk =   0.0066225
        k(   62) = (  -1.0000000   0.0550000   0.0550000), wk =   0.0066225
        k(   63) = (  -1.0000000   0.0600000   0.0600000), wk =   0.0066225
        k(   64) = (  -1.0000000   0.0650000   0.0650000), wk =   0.0066225
        k(   65) = (  -1.0000000   0.0700000   0.0700000), wk =   0.0066225
        k(   66) = (  -1.0000000   0.0750000   0.0750000), wk =   0.0066225
        k(   67) = (  -1.0000000   0.0800000   0.0800000), wk =   0.0066225
        k(   68) = (  -1.0000000   0.0850000   0.0850000), wk =   0.0066225
        k(   69) = (  -1.0000000   0.0900000   0.0900000), wk =   0.0066225
        k(   70) = (  -1.0000000   0.0950000   0.0950000), wk =   0.0066225
        k(   71) = (  -1.0000000   0.1000000   0.1000000), wk =   0.0066225
        k(   72) = (  -1.0000000   0.1050000   0.1050000), wk =   0.0066225
        k(   73) = (  -1.0000000   0.1100000   0.1100000), wk =   0.0066225
        k(   74) = (  -1.0000000   0.1150000   0.1150000), wk =   0.0066225
        k(   75) = (  -1.0000000   0.1200000   0.1200000), wk =   0.0066225
        k(   76) = (  -1.0000000   0.1250000   0.1250000), wk =   0.0066225
        k(   77) = (  -1.0000000   0.1300000   0.1300000), wk =   0.0066225
        k(   78) = (  -1.0000000   0.1350000   0.1350000), wk =   0.0066225
        k(   79) = (  -1.0000000   0.1400000   0.1400000), wk =   0.0066225
        k(   80) = (  -1.0000000   0.1450000   0.1450000), wk =   0.0066225
        k(   81) = (  -1.0000000   0.1500000   0.1500000), wk =   0.0066225
        k(   82) = (  -1.0000000   0.1550000   0.1550000), wk =   0.0066225
        k(   83) = (  -1.0000000   0.1600000   0.1600000), wk =   0.0066225
        k(   84) = (  -1.0000000   0.1650000   0.1650000), wk =   0.0066225
        k(   85) = (  -1.0000000   0.1700000   0.1700000), wk =   0.0066225
        k(   86) = (  -1.0000000   0.1750000   0.1750000), wk =   0.0066225
        k(   87) = (  -1.0000000   0.1800000   0.1800000), wk =   0.0066225
        k(   88) = (  -1.0000000   0.1850000   0.1850000), wk =   0.0066225
        k(   89) = (  -1.0000000   0.1900000   0.1900000), wk =   0.0066225
        k(   90) = (  -1.0000000   0.1950000   0.1950000), wk =   0.0066225
        k(   91) = (  -1.0000000   0.2000000   0.2000000), wk =   0.0066225
        k(   92) = (  -1.0000000   0.2050000   0.2050000), wk =   0.0066225
        k(   93) = (  -1.0000000   0.2100000   0.2100000), wk =   0.0066225
        k(   94) = (  -1.0000000   0.2150000   0.2150000), wk =   0.0066225
        k(   95) = (  -1.0000000   0.2200000   0.2200000), wk =   0.0066225
        k(   96) = (  -1.0000000   0.2250000   0.2250000), wk =   0.0066225
        k(   97) = (  -1.0000000   0.2300000   0.2300000), wk =   0.0066225
        k(   98) = (  -1.0000000   0.2350000   0.2350000), wk =   0.0066225
        k(   99) = (  -1.0000000   0.2400000   0.2400000), wk =   0.0066225
        k(  100) = (  -1.0000000   0.2450000   0.2450000), wk =   0.0066225
        k(  101) = (  -1.0000000   0.2500000   0.2500000), wk =   0.0066225
        k(  102) = (  -0.7500000   0.7500000   0.0000000), wk =   0.0066225
        k(  103) = (  -0.7350000   0.7350000   0.0000000), wk =   0.0066225
        k(  104) = (  -0.7200000   0.7200000   0.0000000), wk =   0.0066225
        k(  105) = (  -0.7050000   0.7050000   0.0000000), wk =   0.0066225
        k(  106) = (  -0.6900000   0.6900000   0.0000000), wk =   0.0066225
        k(  107) = (  -0.6750000   0.6750000   0.0000000), wk =   0.0066225
        k(  108) = (  -0.6600000   0.6600000   0.0000000), wk =   0.0066225
        k(  109) = (  -0.6450000   0.6450000   0.0000000), wk =   0.0066225
        k(  110) = (  -0.6300000   0.6300000   0.0000000), wk =   0.0066225
        k(  111) = (  -0.6150000   0.6150000   0.0000000), wk =   0.0066225
        k(  112) = (  -0.6000000   0.6000000   0.0000000), wk =   0.0066225
        k(  113) = (  -0.5850000   0.5850000   0.0000000), wk =   0.0066225
        k(  114) = (  -0.5700000   0.5700000   0.0000000), wk =   0.0066225
        k(  115) = (  -0.5550000   0.5550000   0.0000000), wk =   0.0066225
        k(  116) = (  -0.5400000   0.5400000   0.0000000), wk =   0.0066225
        k(  117) = (  -0.5250000   0.5250000   0.0000000), wk =   0.0066225
        k(  118) = (  -0.5100000   0.5100000   0.0000000), wk =   0.0066225
        k(  119) = (  -0.4950000   0.4950000   0.0000000), wk =   0.0066225
        k(  120) = (  -0.4800000   0.4800000   0.0000000), wk =   0.0066225
        k(  121) = (  -0.4650000   0.4650000   0.0000000), wk =   0.0066225
        k(  122) = (  -0.4500000   0.4500000   0.0000000), wk =   0.0066225
        k(  123) = (  -0.4350000   0.4350000   0.0000000), wk =   0.0066225
        k(  124) = (  -0.4200000   0.4200000   0.0000000), wk =   0.0066225
        k(  125) = (  -0.4050000   0.4050000   0.0000000), wk =   0.0066225
        k(  126) = (  -0.3900000   0.3900000   0.0000000), wk =   0.0066225
        k(  127) = (  -0.3750000   0.3750000   0.0000000), wk =   0.0066225
        k(  128) = (  -0.3600000   0.3600000   0.0000000), wk =   0.0066225
        k(  129) = (  -0.3450000   0.3450000   0.0000000), wk =   0.0066225
        k(  130) = (  -0.3300000   0.3300000   0.0000000), wk =   0.0066225
        k(  131) = (  -0.3150000   0.3150000   0.0000000), wk =   0.0066225
        k(  132) = (  -0.3000000   0.3000000   0.0000000), wk =   0.0066225
        k(  133) = (  -0.2850000   0.2850000   0.0000000), wk =   0.0066225
        k(  134) = (  -0.2700000   0.2700000   0.0000000), wk =   0.0066225
        k(  135) = (  -0.2550000   0.2550000   0.0000000), wk =   0.0066225
        k(  136) = (  -0.2400000   0.2400000   0.0000000), wk =   0.0066225
        k(  137) = (  -0.2250000   0.2250000   0.0000000), wk =   0.0066225
        k(  138) = (  -0.2100000   0.2100000   0.0000000), wk =   0.0066225
        k(  139) = (  -0.1950000   0.1950000   0.0000000), wk =   0.0066225
        k(  140) = (  -0.1800000   0.1800000   0.0000000), wk =   0.0066225
        k(  141) = (  -0.1650000   0.1650000   0.0000000), wk =   0.0066225
        k(  142) = (  -0.1500000   0.1500000   0.0000000), wk =   0.0066225
        k(  143) = (  -0.1350000   0.1350000   0.0000000), wk =   0.0066225
        k(  144) = (  -0.1200000   0.1200000   0.0000000), wk =   0.0066225
        k(  145) = (  -0.1050000   0.1050000   0.0000000), wk =   0.0066225
        k(  146) = (  -0.0900000   0.0900000   0.0000000), wk =   0.0066225
        k(  147) = (  -0.0750000   0.0750000   0.0000000), wk =   0.0066225
        k(  148) = (  -0.0600000   0.0600000   0.0000000), wk =   0.0066225
        k(  149) = (  -0.0450000   0.0450000   0.0000000), wk =   0.0066225
        k(  150) = (  -0.0300000   0.0300000   0.0000000), wk =   0.0066225
        k(  151) = (  -0.0150000   0.0150000   0.0000000), wk =   0.0066225
        k(  152) = (   0.0000000   0.0000000   0.0000000), wk =   0.0066225
        k(  153) = (  -0.0100000   0.0100000   0.0100000), wk =   0.0066225
        k(  154) = (  -0.0200000   0.0200000   0.0200000), wk =   0.0066225
        k(  155) = (  -0.0300000   0.0300000   0.0300000), wk =   0.0066225
        k(  156) = (  -0.0400000   0.0400000   0.0400000), wk =   0.0066225
        k(  157) = (  -0.0500000   0.0500000   0.0500000), wk =   0.0066225
        k(  158) = (  -0.0600000   0.0600000   0.0600000), wk =   0.0066225
        k(  159) = (  -0.0700000   0.0700000   0.0700000), wk =   0.0066225
        k(  160) = (  -0.0800000   0.0800000   0.0800000), wk =   0.0066225
        k(  161) = (  -0.0900000   0.0900000   0.0900000), wk =   0.0066225
        k(  162) = (  -0.1000000   0.1000000   0.1000000), wk =   0.0066225
        k(  163) = (  -0.1100000   0.1100000   0.1100000), wk =   0.0066225
        k(  164) = (  -0.1200000   0.1200000   0.1200000), wk =   0.0066225
        k(  165) = (  -0.1300000   0.1300000   0.1300000), wk =   0.0066225
        k(  166) = (  -0.1400000   0.1400000   0.1400000), wk =   0.0066225
        k(  167) = (  -0.1500000   0.1500000   0.1500000), wk =   0.0066225
        k(  168) = (  -0.1600000   0.1600000   0.1600000), wk =   0.0066225
        k(  169) = (  -0.1700000   0.1700000   0.1700000), wk =   0.0066225
        k(  170) = (  -0.1800000   0.1800000   0.1800000), wk =   0.0066225
        k(  171) = (  -0.1900000   0.1900000   0.1900000), wk =   0.0066225
        k(  172) = (  -0.2000000   0.2000000   0.2000000), wk =   0.0066225
        k(  173) = (  -0.2100000   0.2100000   0.2100000), wk =   0.0066225
        k(  174) = (  -0.2200000   0.2200000   0.2200000), wk =   0.0066225
        k(  175) = (  -0.2300000   0.2300000   0.2300000), wk =   0.0066225
        k(  176) = (  -0.2400000   0.2400000   0.2400000), wk =   0.0066225
        k(  177) = (  -0.2500000   0.2500000   0.2500000), wk =   0.0066225
        k(  178) = (  -0.2600000   0.2600000   0.2600000), wk =   0.0066225
        k(  179) = (  -0.2700000   0.2700000   0.2700000), wk =   0.0066225
        k(  180) = (  -0.2800000   0.2800000   0.2800000), wk =   0.0066225
        k(  181) = (  -0.2900000   0.2900000   0.2900000), wk =   0.0066225
        k(  182) = (  -0.3000000   0.3000000   0.3000000), wk =   0.0066225
        k(  183) = (  -0.3100000   0.3100000   0.3100000), wk =   0.0066225
        k(  184) = (  -0.3200000   0.3200000   0.3200000), wk =   0.0066225
        k(  185) = (  -0.3300000   0.3300000   0.3300000), wk =   0.0066225
        k(  186) = (  -0.3400000   0.3400000   0.3400000), wk =   0.0066225
        k(  187) = (  -0.3500000   0.3500000   0.3500000), wk =   0.0066225
        k(  188) = (  -0.3600000   0.3600000   0.3600000), wk =   0.0066225
        k(  189) = (  -0.3700000   0.3700000   0.3700000), wk =   0.0066225
        k(  190) = (  -0.3800000   0.3800000   0.3800000), wk =   0.0066225
        k(  191) = (  -0.3900000   0.3900000   0.3900000), wk =   0.0066225
        k(  192) = (  -0.4000000   0.4000000   0.4000000), wk =   0.0066225
        k(  193) = (  -0.4100000   0.4100000   0.4100000), wk =   0.0066225
        k(  194) = (  -0.4200000   0.4200000   0.4200000), wk =   0.0066225
        k(  195) = (  -0.4300000   0.4300000   0.4300000), wk =   0.0066225
        k(  196) = (  -0.4400000   0.4400000   0.4400000), wk =   0.0066225
        k(  197) = (  -0.4500000   0.4500000   0.4500000), wk =   0.0066225
        k(  198) = (  -0.4600000   0.4600000   0.4600000), wk =   0.0066225
        k(  199) = (  -0.4700000   0.4700000   0.4700000), wk =   0.0066225
        k(  200) = (  -0.4800000   0.4800000   0.4800000), wk =   0.0066225
        k(  201) = (  -0.4900000   0.4900000   0.4900000), wk =   0.0066225
        k(  202) = (  -0.5000000   0.5000000   0.5000000), wk =   0.0066225
        k(  203) = (  -0.5100000   0.5000000   0.4900000), wk =   0.0066225
        k(  204) = (  -0.5200000   0.5000000   0.4800000), wk =   0.0066225
        k(  205) = (  -0.5300000   0.5000000   0.4700000), wk =   0.0066225
        k(  206) = (  -0.5400000   0.5000000   0.4600000), wk =   0.0066225
        k(  207) = (  -0.5500000   0.5000000   0.4500000), wk =   0.0066225
        k(  208) = (  -0.5600000   0.5000000   0.4400000), wk =   0.0066225
        k(  209) = (  -0.5700000   0.5000000   0.4300000), wk =   0.0066225
        k(  210) = (  -0.5800000   0.5000000   0.4200000), wk =   0.0066225
        k(  211) = (  -0.5900000   0.5000000   0.4100000), wk =   0.0066225
        k(  212) = (  -0.6000000   0.5000000   0.4000000), wk =   0.0066225
        k(  213) = (  -0.6100000   0.5000000   0.3900000), wk =   0.0066225
        k(  214) = (  -0.6200000   0.5000000   0.3800000), wk =   0.0066225
        k(  215) = (  -0.6300000   0.5000000   0.3700000), wk =   0.0066225
        k(  216) = (  -0.6400000   0.5000000   0.3600000), wk =   0.0066225
        k(  217) = (  -0.6500000   0.5000000   0.3500000), wk =   0.0066225
        k(  218) = (  -0.6600000   0.5000000   0.3400000), wk =   0.0066225
        k(  219) = (  -0.6700000   0.5000000   0.3300000), wk =   0.0066225
        k(  220) = (  -0.6800000   0.5000000   0.3200000), wk =   0.0066225
        k(  221) = (  -0.6900000   0.5000000   0.3100000), wk =   0.0066225
        k(  222) = (  -0.7000000   0.5000000   0.3000000), wk =   0.0066225
        k(  223) = (  -0.7100000   0.5000000   0.2900000), wk =   0.0066225
        k(  224) = (  -0.7200000   0.5000000   0.2800000), wk =   0.0066225
        k(  225) = (  -0.7300000   0.5000000   0.2700000), wk =   0.0066225
        k(  226) = (  -0.7400000   0.5000000   0.2600000), wk =   0.0066225
        k(  227) = (  -0.7500000   0.5000000   0.2500000), wk =   0.0066225
        k(  228) = (  -0.7600000   0.5000000   0.2400000), wk =   0.0066225
        k(  229) = (  -0.7700000   0.5000000   0.2300000), wk =   0.0066225
        k(  230) = (  -0.7800000   0.5000000   0.2200000), wk =   0.0066225
        k(  231) = (  -0.7900000   0.5000000   0.2100000), wk =   0.0066225
        k(  232) = (  -0.8000000   0.5000000   0.2000000), wk =   0.0066225
        k(  233) = (  -0.8100000   0.5000000   0.1900000), wk =   0.0066225
        k(  234) = (  -0.8200000   0.5000000   0.1800000), wk =   0.0066225
        k(  235) = (  -0.8300000   0.5000000   0.1700000), wk =   0.0066225
        k(  236) = (  -0.8400000   0.5000000   0.1600000), wk =   0.0066225
        k(  237) = (  -0.8500000   0.5000000   0.1500000), wk =   0.0066225
        k(  238) = (  -0.8600000   0.5000000   0.1400000), wk =   0.0066225
        k(  239) = (  -0.8700000   0.5000000   0.1300000), wk =   0.0066225
        k(  240) = (  -0.8800000   0.5000000   0.1200000), wk =   0.0066225
        k(  241) = (  -0.8900000   0.5000000   0.1100000), wk =   0.0066225
        k(  242) = (  -0.9000000   0.5000000   0.1000000), wk =   0.0066225
        k(  243) = (  -0.9100000   0.5000000   0.0900000), wk =   0.0066225
        k(  244) = (  -0.9200000   0.5000000   0.0800000), wk =   0.0066225
        k(  245) = (  -0.9300000   0.5000000   0.0700000), wk =   0.0066225
        k(  246) = (  -0.9400000   0.5000000   0.0600000), wk =   0.0066225
        k(  247) = (  -0.9500000   0.5000000   0.0500000), wk =   0.0066225
        k(  248) = (  -0.9600000   0.5000000   0.0400000), wk =   0.0066225
        k(  249) = (  -0.9700000   0.5000000   0.0300000), wk =   0.0066225
        k(  250) = (  -0.9800000   0.5000000   0.0200000), wk =   0.0066225
        k(  251) = (  -0.9900000   0.5000000   0.0100000), wk =   0.0066225
        k(  252) = (  -1.0000000   0.5000000   0.0000000), wk =   0.0066225
        k(  253) = (  -1.0000000   0.4900000   0.0000000), wk =   0.0066225
        k(  254) = (  -1.0000000   0.4800000   0.0000000), wk =   0.0066225
        k(  255) = (  -1.0000000   0.4700000   0.0000000), wk =   0.0066225
        k(  256) = (  -1.0000000   0.4600000   0.0000000), wk =   0.0066225
        k(  257) = (  -1.0000000   0.4500000   0.0000000), wk =   0.0066225
        k(  258) = (  -1.0000000   0.4400000   0.0000000), wk =   0.0066225
        k(  259) = (  -1.0000000   0.4300000   0.0000000), wk =   0.0066225
        k(  260) = (  -1.0000000   0.4200000   0.0000000), wk =   0.0066225
        k(  261) = (  -1.0000000   0.4100000   0.0000000), wk =   0.0066225
        k(  262) = (  -1.0000000   0.4000000   0.0000000), wk =   0.0066225
        k(  263) = (  -1.0000000   0.3900000   0.0000000), wk =   0.0066225
        k(  264) = (  -1.0000000   0.3800000   0.0000000), wk =   0.0066225
        k(  265) = (  -1.0000000   0.3700000   0.0000000), wk =   0.0066225
        k(  266) = (  -1.0000000   0.3600000   0.0000000), wk =   0.0066225
        k(  267) = (  -1.0000000   0.3500000   0.0000000), wk =   0.0066225
        k(  268) = (  -1.0000000   0.3400000  -0.0000000), wk =   0.0066225
        k(  269) = (  -1.0000000   0.3300000   0.0000000), wk =   0.0066225
        k(  270) = (  -1.0000000   0.3200000   0.0000000), wk =   0.0066225
        k(  271) = (  -1.0000000   0.3100000   0.0000000), wk =   0.0066225
        k(  272) = (  -1.0000000   0.3000000   0.0000000), wk =   0.0066225
        k(  273) = (  -1.0000000   0.2900000   0.0000000), wk =   0.0066225
        k(  274) = (  -1.0000000   0.2800000   0.0000000), wk =   0.0066225
        k(  275) = (  -1.0000000   0.2700000   0.0000000), wk =   0.0066225
        k(  276) = (  -1.0000000   0.2600000   0.0000000), wk =   0.0066225
        k(  277) = (  -1.0000000   0.2500000   0.0000000), wk =   0.0066225
        k(  278) = (  -1.0000000   0.2400000   0.0000000), wk =   0.0066225
        k(  279) = (  -1.0000000   0.2300000   0.0000000), wk =   0.0066225
        k(  280) = (  -1.0000000   0.2200000   0.0000000), wk =   0.0066225
        k(  281) = (  -1.0000000   0.2100000   0.0000000), wk =   0.0066225
        k(  282) = (  -1.0000000   0.2000000   0.0000000), wk =   0.0066225
        k(  283) = (  -1.0000000   0.1900000   0.0000000), wk =   0.0066225
        k(  284) = (  -1.0000000   0.1800000   0.0000000), wk =   0.0066225
        k(  285) = (  -1.0000000   0.1700000   0.0000000), wk =   0.0066225
        k(  286) = (  -1.0000000   0.1600000   0.0000000), wk =   0.0066225
        k(  287) = (  -1.0000000   0.1500000   0.0000000), wk =   0.0066225
        k(  288) = (  -1.0000000   0.1400000   0.0000000), wk =   0.0066225
        k(  289) = (  -1.0000000   0.1300000   0.0000000), wk =   0.0066225
        k(  290) = (  -1.0000000   0.1200000   0.0000000), wk =   0.0066225
        k(  291) = (  -1.0000000   0.1100000   0.0000000), wk =   0.0066225
        k(  292) = (  -1.0000000   0.1000000   0.0000000), wk =   0.0066225
        k(  293) = (  -1.0000000   0.0900000   0.0000000), wk =   0.0066225
        k(  294) = (  -1.0000000   0.0800000   0.0000000), wk =   0.0066225
        k(  295) = (  -1.0000000   0.0700000   0.0000000), wk =   0.0066225
        k(  296) = (  -1.0000000   0.0600000   0.0000000), wk =   0.0066225
        k(  297) = (  -1.0000000   0.0500000   0.0000000), wk =   0.0066225
        k(  298) = (  -1.0000000   0.0400000   0.0000000), wk =   0.0066225
        k(  299) = (  -1.0000000   0.0300000   0.0000000), wk =   0.0066225
        k(  300) = (  -1.0000000   0.0200000   0.0000000), wk =   0.0066225
        k(  301) = (  -1.0000000   0.0100000   0.0000000), wk =   0.0066225
        k(  302) = (  -1.0000000   0.0000000   0.0000000), wk =   0.0066225

                       cryst. coord.
        k(    1) = (   0.0000000   0.0000000   0.0000000), wk =   0.0066225
        k(    2) = (   0.0100000   0.0000000   0.0100000), wk =   0.0066225
        k(    3) = (   0.0200000   0.0000000   0.0200000), wk =   0.0066225
        k(    4) = (   0.0300000   0.0000000   0.0300000), wk =   0.0066225
        k(    5) = (   0.0400000   0.0000000   0.0400000), wk =   0.0066225
        k(    6) = (   0.0500000   0.0000000   0.0500000), wk =   0.0066225
        k(    7) = (   0.0600000   0.0000000   0.0600000), wk =   0.0066225
        k(    8) = (   0.0700000   0.0000000   0.0700000), wk =   0.0066225
        k(    9) = (   0.0800000   0.0000000   0.0800000), wk =   0.0066225
        k(   10) = (   0.0900000   0.0000000   0.0900000), wk =   0.0066225
        k(   11) = (   0.1000000   0.0000000   0.1000000), wk =   0.0066225
        k(   12) = (   0.1100000   0.0000000   0.1100000), wk =   0.0066225
        k(   13) = (   0.1200000   0.0000000   0.1200000), wk =   0.0066225
        k(   14) = (   0.1300000   0.0000000   0.1300000), wk =   0.0066225
        k(   15) = (   0.1400000   0.0000000   0.1400000), wk =   0.0066225
        k(   16) = (   0.1500000   0.0000000   0.1500000), wk =   0.0066225
        k(   17) = (   0.1600000   0.0000000   0.1600000), wk =   0.0066225
        k(   18) = (   0.1700000   0.0000000   0.1700000), wk =   0.0066225
        k(   19) = (   0.1800000   0.0000000   0.1800000), wk =   0.0066225
        k(   20) = (   0.1900000   0.0000000   0.1900000), wk =   0.0066225
        k(   21) = (   0.2000000   0.0000000   0.2000000), wk =   0.0066225
        k(   22) = (   0.2100000   0.0000000   0.2100000), wk =   0.0066225
        k(   23) = (   0.2200000   0.0000000   0.2200000), wk =   0.0066225
        k(   24) = (   0.2300000   0.0000000   0.2300000), wk =   0.0066225
        k(   25) = (   0.2400000   0.0000000   0.2400000), wk =   0.0066225
        k(   26) = (   0.2500000   0.0000000   0.2500000), wk =   0.0066225
        k(   27) = (   0.2600000   0.0000000   0.2600000), wk =   0.0066225
        k(   28) = (   0.2700000   0.0000000   0.2700000), wk =   0.0066225
        k(   29) = (   0.2800000   0.0000000   0.2800000), wk =   0.0066225
        k(   30) = (   0.2900000   0.0000000   0.2900000), wk =   0.0066225
        k(   31) = (   0.3000000   0.0000000   0.3000000), wk =   0.0066225
        k(   32) = (   0.3100000   0.0000000   0.3100000), wk =   0.0066225
        k(   33) = (   0.3200000   0.0000000   0.3200000), wk =   0.0066225
        k(   34) = (   0.3300000   0.0000000   0.3300000), wk =   0.0066225
        k(   35) = (   0.3400000   0.0000000   0.3400000), wk =   0.0066225
        k(   36) = (   0.3500000   0.0000000   0.3500000), wk =   0.0066225
        k(   37) = (   0.3600000   0.0000000   0.3600000), wk =   0.0066225
        k(   38) = (   0.3700000   0.0000000   0.3700000), wk =   0.0066225
        k(   39) = (   0.3800000   0.0000000   0.3800000), wk =   0.0066225
        k(   40) = (   0.3900000   0.0000000   0.3900000), wk =   0.0066225
        k(   41) = (   0.4000000   0.0000000   0.4000000), wk =   0.0066225
        k(   42) = (   0.4100000   0.0000000   0.4100000), wk =   0.0066225
        k(   43) = (   0.4200000   0.0000000   0.4200000), wk =   0.0066225
        k(   44) = (   0.4300000   0.0000000   0.4300000), wk =   0.0066225
        k(   45) = (   0.4400000   0.0000000   0.4400000), wk =   0.0066225
        k(   46) = (   0.4500000   0.0000000   0.4500000), wk =   0.0066225
        k(   47) = (   0.4600000   0.0000000   0.4600000), wk =   0.0066225
        k(   48) = (   0.4700000   0.0000000   0.4700000), wk =   0.0066225
        k(   49) = (   0.4800000   0.0000000   0.4800000), wk =   0.0066225
        k(   50) = (   0.4900000   0.0000000   0.4900000), wk =   0.0066225
        k(   51) = (   0.5000000   0.0000000   0.5000000), wk =   0.0066225
        k(   52) = (   0.5025000   0.0050000   0.5025000), wk =   0.0066225
        k(   53) = (   0.5050000   0.0100000   0.5050000), wk =   0.0066225
        k(   54) = (   0.5075000   0.0150000   0.5075000), wk =   0.0066225
        k(   55) = (   0.5100000   0.0200000   0.5100000), wk =   0.0066225
        k(   56) = (   0.5125000   0.0250000   0.5125000), wk =   0.0066225
        k(   57) = (   0.5150000   0.0300000   0.5150000), wk =   0.0066225
        k(   58) = (   0.5175000   0.0350000   0.5175000), wk =   0.0066225
        k(   59) = (   0.5200000   0.0400000   0.5200000), wk =   0.0066225
        k(   60) = (   0.5225000   0.0450000   0.5225000), wk =   0.0066225
        k(   61) = (   0.5250000   0.0500000   0.5250000), wk =   0.0066225
        k(   62) = (   0.5275000   0.0550000   0.5275000), wk =   0.0066225
        k(   63) = (   0.5300000   0.0600000   0.5300000), wk =   0.0066225
        k(   64) = (   0.5325000   0.0650000   0.5325000), wk =   0.0066225
        k(   65) = (   0.5350000   0.0700000   0.5350000), wk =   0.0066225
        k(   66) = (   0.5375000   0.0750000   0.5375000), wk =   0.0066225
        k(   67) = (   0.5400000   0.0800000   0.5400000), wk =   0.0066225
        k(   68) = (   0.5425000   0.0850000   0.5425000), wk =   0.0066225
        k(   69) = (   0.5450000   0.0900000   0.5450000), wk =   0.0066225
        k(   70) = (   0.5475000   0.0950000   0.5475000), wk =   0.0066225
        k(   71) = (   0.5500000   0.1000000   0.5500000), wk =   0.0066225
        k(   72) = (   0.5525000   0.1050000   0.5525000), wk =   0.0066225
        k(   73) = (   0.5550000   0.1100000   0.5550000), wk =   0.0066225
        k(   74) = (   0.5575000   0.1150000   0.5575000), wk =   0.0066225
        k(   75) = (   0.5600000   0.1200000   0.5600000), wk =   0.0066225
        k(   76) = (   0.5625000   0.1250000   0.5625000), wk =   0.0066225
        k(   77) = (   0.5650000   0.1300000   0.5650000), wk =   0.0066225
        k(   78) = (   0.5675000   0.1350000   0.5675000), wk =   0.0066225
        k(   79) = (   0.5700000   0.1400000   0.5700000), wk =   0.0066225
        k(   80) = (   0.5725000   0.1450000   0.5725000), wk =   0.0066225
        k(   81) = (   0.5750000   0.1500000   0.5750000), wk =   0.0066225
        k(   82) = (   0.5775000   0.1550000   0.5775000), wk =   0.0066225
        k(   83) = (   0.5800000   0.1600000   0.5800000), wk =   0.0066225
        k(   84) = (   0.5825000   0.1650000   0.5825000), wk =   0.0066225
        k(   85) = (   0.5850000   0.1700000   0.5850000), wk =   0.0066225
        k(   86) = (   0.5875000   0.1750000   0.5875000), wk =   0.0066225
        k(   87) = (   0.5900000   0.1800000   0.5900000), wk =   0.0066225
        k(   88) = (   0.5925000   0.1850000   0.5925000), wk =   0.0066225
        k(   89) = (   0.5950000   0.1900000   0.5950000), wk =   0.0066225
        k(   90) = (   0.5975000   0.1950000   0.5975000), wk =   0.0066225
        k(   91) = (   0.6000000   0.2000000   0.6000000), wk =   0.0066225
        k(   92) = (   0.6025000   0.2050000   0.6025000), wk =   0.0066225
        k(   93) = (   0.6050000   0.2100000   0.6050000), wk =   0.0066225
        k(   94) = (   0.6075000   0.2150000   0.6075000), wk =   0.0066225
        k(   95) = (   0.6100000   0.2200000   0.6100000), wk =   0.0066225
        k(   96) = (   0.6125000   0.2250000   0.6125000), wk =   0.0066225
        k(   97) = (   0.6150000   0.2300000   0.6150000), wk =   0.0066225
        k(   98) = (   0.6175000   0.2350000   0.6175000), wk =   0.0066225
        k(   99) = (   0.6200000   0.2400000   0.6200000), wk =   0.0066225
        k(  100) = (   0.6225000   0.2450000   0.6225000), wk =   0.0066225
        k(  101) = (   0.6250000   0.2500000   0.6250000), wk =   0.0066225
        k(  102) = (   0.3750000   0.3750000   0.7500000), wk =   0.0066225
        k(  103) = (   0.3675000   0.3675000   0.7350000), wk =   0.0066225
        k(  104) = (   0.3600000   0.3600000   0.7200000), wk =   0.0066225
        k(  105) = (   0.3525000   0.3525000   0.7050000), wk =   0.0066225
        k(  106) = (   0.3450000   0.3450000   0.6900000), wk =   0.0066225
        k(  107) = (   0.3375000   0.3375000   0.6750000), wk =   0.0066225
        k(  108) = (   0.3300000   0.3300000   0.6600000), wk =   0.0066225
        k(  109) = (   0.3225000   0.3225000   0.6450000), wk =   0.0066225
        k(  110) = (   0.3150000   0.3150000   0.6300000), wk =   0.0066225
        k(  111) = (   0.3075000   0.3075000   0.6150000), wk =   0.0066225
        k(  112) = (   0.3000000   0.3000000   0.6000000), wk =   0.0066225
        k(  113) = (   0.2925000   0.2925000   0.5850000), wk =   0.0066225
        k(  114) = (   0.2850000   0.2850000   0.5700000), wk =   0.0066225
        k(  115) = (   0.2775000   0.2775000   0.5550000), wk =   0.0066225
        k(  116) = (   0.2700000   0.2700000   0.5400000), wk =   0.0066225
        k(  117) = (   0.2625000   0.2625000   0.5250000), wk =   0.0066225
        k(  118) = (   0.2550000   0.2550000   0.5100000), wk =   0.0066225
        k(  119) = (   0.2475000   0.2475000   0.4950000), wk =   0.0066225
        k(  120) = (   0.2400000   0.2400000   0.4800000), wk =   0.0066225
        k(  121) = (   0.2325000   0.2325000   0.4650000), wk =   0.0066225
        k(  122) = (   0.2250000   0.2250000   0.4500000), wk =   0.0066225
        k(  123) = (   0.2175000   0.2175000   0.4350000), wk =   0.0066225
        k(  124) = (   0.2100000   0.2100000   0.4200000), wk =   0.0066225
        k(  125) = (   0.2025000   0.2025000   0.4050000), wk =   0.0066225
        k(  126) = (   0.1950000   0.1950000   0.3900000), wk =   0.0066225
        k(  127) = (   0.1875000   0.1875000   0.3750000), wk =   0.0066225
        k(  128) = (   0.1800000   0.1800000   0.3600000), wk =   0.0066225
        k(  129) = (   0.1725000   0.1725000   0.3450000), wk =   0.0066225
        k(  130) = (   0.1650000   0.1650000   0.3300000), wk =   0.0066225
        k(  131) = (   0.1575000   0.1575000   0.3150000), wk =   0.0066225
        k(  132) = (   0.1500000   0.1500000   0.3000000), wk =   0.0066225
        k(  133) = (   0.1425000   0.1425000   0.2850000), wk =   0.0066225
        k(  134) = (   0.1350000   0.1350000   0.2700000), wk =   0.0066225
        k(  135) = (   0.1275000   0.1275000   0.2550000), wk =   0.0066225
        k(  136) = (   0.1200000   0.1200000   0.2400000), wk =   0.0066225
        k(  137) = (   0.1125000   0.1125000   0.2250000), wk =   0.0066225
        k(  138) = (   0.1050000   0.1050000   0.2100000), wk =   0.0066225
        k(  139) = (   0.0975000   0.0975000   0.1950000), wk =   0.0066225
        k(  140) = (   0.0900000   0.0900000   0.1800000), wk =   0.0066225
        k(  141) = (   0.0825000   0.0825000   0.1650000), wk =   0.0066225
        k(  142) = (   0.0750000   0.0750000   0.1500000), wk =   0.0066225
        k(  143) = (   0.0675000   0.0675000   0.1350000), wk =   0.0066225
        k(  144) = (   0.0600000   0.0600000   0.1200000), wk =   0.0066225
        k(  145) = (   0.0525000   0.0525000   0.1050000), wk =   0.0066225
        k(  146) = (   0.0450000   0.0450000   0.0900000), wk =   0.0066225
        k(  147) = (   0.0375000   0.0375000   0.0750000), wk =   0.0066225
        k(  148) = (   0.0300000   0.0300000   0.0600000), wk =   0.0066225
        k(  149) = (   0.0225000   0.0225000   0.0450000), wk =   0.0066225
        k(  150) = (   0.0150000   0.0150000   0.0300000), wk =   0.0066225
        k(  151) = (   0.0075000   0.0075000   0.0150000), wk =   0.0066225
        k(  152) = (   0.0000000   0.0000000   0.0000000), wk =   0.0066225
        k(  153) = (   0.0100000   0.0100000   0.0100000), wk =   0.0066225
        k(  154) = (   0.0200000   0.0200000   0.0200000), wk =   0.0066225
        k(  155) = (   0.0300000   0.0300000   0.0300000), wk =   0.0066225
        k(  156) = (   0.0400000   0.0400000   0.0400000), wk =   0.0066225
        k(  157) = (   0.0500000   0.0500000   0.0500000), wk =   0.0066225
        k(  158) = (   0.0600000   0.0600000   0.0600000), wk =   0.0066225
        k(  159) = (   0.0700000   0.0700000   0.0700000), wk =   0.0066225
        k(  160) = (   0.0800000   0.0800000   0.0800000), wk =   0.0066225
        k(  161) = (   0.0900000   0.0900000   0.0900000), wk =   0.0066225
        k(  162) = (   0.1000000   0.1000000   0.1000000), wk =   0.0066225
        k(  163) = (   0.1100000   0.1100000   0.1100000), wk =   0.0066225
        k(  164) = (   0.1200000   0.1200000   0.1200000), wk =   0.0066225
        k(  165) = (   0.1300000   0.1300000   0.1300000), wk =   0.0066225
        k(  166) = (   0.1400000   0.1400000   0.1400000), wk =   0.0066225
        k(  167) = (   0.1500000   0.1500000   0.1500000), wk =   0.0066225
        k(  168) = (   0.1600000   0.1600000   0.1600000), wk =   0.0066225
        k(  169) = (   0.1700000   0.1700000   0.1700000), wk =   0.0066225
        k(  170) = (   0.1800000   0.1800000   0.1800000), wk =   0.0066225
        k(  171) = (   0.1900000   0.1900000   0.1900000), wk =   0.0066225
        k(  172) = (   0.2000000   0.2000000   0.2000000), wk =   0.0066225
        k(  173) = (   0.2100000   0.2100000   0.2100000), wk =   0.0066225
        k(  174) = (   0.2200000   0.2200000   0.2200000), wk =   0.0066225
        k(  175) = (   0.2300000   0.2300000   0.2300000), wk =   0.0066225
        k(  176) = (   0.2400000   0.2400000   0.2400000), wk =   0.0066225
        k(  177) = (   0.2500000   0.2500000   0.2500000), wk =   0.0066225
        k(  178) = (   0.2600000   0.2600000   0.2600000), wk =   0.0066225
        k(  179) = (   0.2700000   0.2700000   0.2700000), wk =   0.0066225
        k(  180) = (   0.2800000   0.2800000   0.2800000), wk =   0.0066225
        k(  181) = (   0.2900000   0.2900000   0.2900000), wk =   0.0066225
        k(  182) = (   0.3000000   0.3000000   0.3000000), wk =   0.0066225
        k(  183) = (   0.3100000   0.3100000   0.3100000), wk =   0.0066225
        k(  184) = (   0.3200000   0.3200000   0.3200000), wk =   0.0066225
        k(  185) = (   0.3300000   0.3300000   0.3300000), wk =   0.0066225
        k(  186) = (   0.3400000   0.3400000   0.3400000), wk =   0.0066225
        k(  187) = (   0.3500000   0.3500000   0.3500000), wk =   0.0066225
        k(  188) = (   0.3600000   0.3600000   0.3600000), wk =   0.0066225
        k(  189) = (   0.3700000   0.3700000   0.3700000), wk =   0.0066225
        k(  190) = (   0.3800000   0.3800000   0.3800000), wk =   0.0066225
        k(  191) = (   0.3900000   0.3900000   0.3900000), wk =   0.0066225
        k(  192) = (   0.4000000   0.4000000   0.4000000), wk =   0.0066225
        k(  193) = (   0.4100000   0.4100000   0.4100000), wk =   0.0066225
        k(  194) = (   0.4200000   0.4200000   0.4200000), wk =   0.0066225
        k(  195) = (   0.4300000   0.4300000   0.4300000), wk =   0.0066225
        k(  196) = (   0.4400000   0.4400000   0.4400000), wk =   0.0066225
        k(  197) = (   0.4500000   0.4500000   0.4500000), wk =   0.0066225
        k(  198) = (   0.4600000   0.4600000   0.4600000), wk =   0.0066225
        k(  199) = (   0.4700000   0.4700000   0.4700000), wk =   0.0066225
        k(  200) = (   0.4800000   0.4800000   0.4800000), wk =   0.0066225
        k(  201) = (   0.4900000   0.4900000   0.4900000), wk =   0.0066225
        k(  202) = (   0.5000000   0.5000000   0.5000000), wk =   0.0066225
        k(  203) = (   0.5000000   0.4950000   0.5050000), wk =   0.0066225
        k(  204) = (   0.5000000   0.4900000   0.5100000), wk =   0.0066225
        k(  205) = (   0.5000000   0.4850000   0.5150000), wk =   0.0066225
        k(  206) = (   0.5000000   0.4800000   0.5200000), wk =   0.0066225
        k(  207) = (   0.5000000   0.4750000   0.5250000), wk =   0.0066225
        k(  208) = (   0.5000000   0.4700000   0.5300000), wk =   0.0066225
        k(  209) = (   0.5000000   0.4650000   0.5350000), wk =   0.0066225
        k(  210) = (   0.5000000   0.4600000   0.5400000), wk =   0.0066225
        k(  211) = (   0.5000000   0.4550000   0.5450000), wk =   0.0066225
        k(  212) = (   0.5000000   0.4500000   0.5500000), wk =   0.0066225
        k(  213) = (   0.5000000   0.4450000   0.5550000), wk =   0.0066225
        k(  214) = (   0.5000000   0.4400000   0.5600000), wk =   0.0066225
        k(  215) = (   0.5000000   0.4350000   0.5650000), wk =   0.0066225
        k(  216) = (   0.5000000   0.4300000   0.5700000), wk =   0.0066225
        k(  217) = (   0.5000000   0.4250000   0.5750000), wk =   0.0066225
        k(  218) = (   0.5000000   0.4200000   0.5800000), wk =   0.0066225
        k(  219) = (   0.5000000   0.4150000   0.5850000), wk =   0.0066225
        k(  220) = (   0.5000000   0.4100000   0.5900000), wk =   0.0066225
        k(  221) = (   0.5000000   0.4050000   0.5950000), wk =   0.0066225
        k(  222) = (   0.5000000   0.4000000   0.6000000), wk =   0.0066225
        k(  223) = (   0.5000000   0.3950000   0.6050000), wk =   0.0066225
        k(  224) = (   0.5000000   0.3900000   0.6100000), wk =   0.0066225
        k(  225) = (   0.5000000   0.3850000   0.6150000), wk =   0.0066225
        k(  226) = (   0.5000000   0.3800000   0.6200000), wk =   0.0066225
        k(  227) = (   0.5000000   0.3750000   0.6250000), wk =   0.0066225
        k(  228) = (   0.5000000   0.3700000   0.6300000), wk =   0.0066225
        k(  229) = (   0.5000000   0.3650000   0.6350000), wk =   0.0066225
        k(  230) = (   0.5000000   0.3600000   0.6400000), wk =   0.0066225
        k(  231) = (   0.5000000   0.3550000   0.6450000), wk =   0.0066225
        k(  232) = (   0.5000000   0.3500000   0.6500000), wk =   0.0066225
        k(  233) = (   0.5000000   0.3450000   0.6550000), wk =   0.0066225
        k(  234) = (   0.5000000   0.3400000   0.6600000), wk =   0.0066225
        k(  235) = (   0.5000000   0.3350000   0.6650000), wk =   0.0066225
        k(  236) = (   0.5000000   0.3300000   0.6700000), wk =   0.0066225
        k(  237) = (   0.5000000   0.3250000   0.6750000), wk =   0.0066225
        k(  238) = (   0.5000000   0.3200000   0.6800000), wk =   0.0066225
        k(  239) = (   0.5000000   0.3150000   0.6850000), wk =   0.0066225
        k(  240) = (   0.5000000   0.3100000   0.6900000), wk =   0.0066225
        k(  241) = (   0.5000000   0.3050000   0.6950000), wk =   0.0066225
        k(  242) = (   0.5000000   0.3000000   0.7000000), wk =   0.0066225
        k(  243) = (   0.5000000   0.2950000   0.7050000), wk =   0.0066225
        k(  244) = (   0.5000000   0.2900000   0.7100000), wk =   0.0066225
        k(  245) = (   0.5000000   0.2850000   0.7150000), wk =   0.0066225
        k(  246) = (   0.5000000   0.2800000   0.7200000), wk =   0.0066225
        k(  247) = (   0.5000000   0.2750000   0.7250000), wk =   0.0066225
        k(  248) = (   0.5000000   0.2700000   0.7300000), wk =   0.0066225
        k(  249) = (   0.5000000   0.2650000   0.7350000), wk =   0.0066225
        k(  250) = (   0.5000000   0.2600000   0.7400000), wk =   0.0066225
        k(  251) = (   0.5000000   0.2550000   0.7450000), wk =   0.0066225
        k(  252) = (   0.5000000   0.2500000   0.7500000), wk =   0.0066225
        k(  253) = (   0.5000000   0.2450000   0.7450000), wk =   0.0066225
        k(  254) = (   0.5000000   0.2400000   0.7400000), wk =   0.0066225
        k(  255) = (   0.5000000   0.2350000   0.7350000), wk =   0.0066225
        k(  256) = (   0.5000000   0.2300000   0.7300000), wk =   0.0066225
        k(  257) = (   0.5000000   0.2250000   0.7250000), wk =   0.0066225
        k(  258) = (   0.5000000   0.2200000   0.7200000), wk =   0.0066225
        k(  259) = (   0.5000000   0.2150000   0.7150000), wk =   0.0066225
        k(  260) = (   0.5000000   0.2100000   0.7100000), wk =   0.0066225
        k(  261) = (   0.5000000   0.2050000   0.7050000), wk =   0.0066225
        k(  262) = (   0.5000000   0.2000000   0.7000000), wk =   0.0066225
        k(  263) = (   0.5000000   0.1950000   0.6950000), wk =   0.0066225
        k(  264) = (   0.5000000   0.1900000   0.6900000), wk =   0.0066225
        k(  265) = (   0.5000000   0.1850000   0.6850000), wk =   0.0066225
        k(  266) = (   0.5000000   0.1800000   0.6800000), wk =   0.0066225
        k(  267) = (   0.5000000   0.1750000   0.6750000), wk =   0.0066225
        k(  268) = (   0.5000000   0.1700000   0.6700000), wk =   0.0066225
        k(  269) = (   0.5000000   0.1650000   0.6650000), wk =   0.0066225
        k(  270) = (   0.5000000   0.1600000   0.6600000), wk =   0.0066225
        k(  271) = (   0.5000000   0.1550000   0.6550000), wk =   0.0066225
        k(  272) = (   0.5000000   0.1500000   0.6500000), wk =   0.0066225
        k(  273) = (   0.5000000   0.1450000   0.6450000), wk =   0.0066225
        k(  274) = (   0.5000000   0.1400000   0.6400000), wk =   0.0066225
        k(  275) = (   0.5000000   0.1350000   0.6350000), wk =   0.0066225
        k(  276) = (   0.5000000   0.1300000   0.6300000), wk =   0.0066225
        k(  277) = (   0.5000000   0.1250000   0.6250000), wk =   0.0066225
        k(  278) = (   0.5000000   0.1200000   0.6200000), wk =   0.0066225
        k(  279) = (   0.5000000   0.1150000   0.6150000), wk =   0.0066225
        k(  280) = (   0.5000000   0.1100000   0.6100000), wk =   0.0066225
        k(  281) = (   0.5000000   0.1050000   0.6050000), wk =   0.0066225
        k(  282) = (   0.5000000   0.1000000   0.6000000), wk =   0.0066225
        k(  283) = (   0.5000000   0.0950000   0.5950000), wk =   0.0066225
        k(  284) = (   0.5000000   0.0900000   0.5900000), wk =   0.0066225
        k(  285) = (   0.5000000   0.0850000   0.5850000), wk =   0.0066225
        k(  286) = (   0.5000000   0.0800000   0.5800000), wk =   0.0066225
        k(  287) = (   0.5000000   0.0750000   0.5750000), wk =   0.0066225
        k(  288) = (   0.5000000   0.0700000   0.5700000), wk =   0.0066225
        k(  289) = (   0.5000000   0.0650000   0.5650000), wk =   0.0066225
        k(  290) = (   0.5000000   0.0600000   0.5600000), wk =   0.0066225
        k(  291) = (   0.5000000   0.0550000   0.5550000), wk =   0.0066225
        k(  292) = (   0.5000000   0.0500000   0.5500000), wk =   0.0066225
        k(  293) = (   0.5000000   0.0450000   0.5450000), wk =   0.0066225
        k(  294) = (   0.5000000   0.0400000   0.5400000), wk =   0.0066225
        k(  295) = (   0.5000000   0.0350000   0.5350000), wk =   0.0066225
        k(  296) = (   0.5000000   0.0300000   0.5300000), wk =   0.0066225
        k(  297) = (   0.5000000   0.0250000   0.5250000), wk =   0.0066225
        k(  298) = (   0.5000000   0.0200000   0.5200000), wk =   0.0066225
        k(  299) = (   0.5000000   0.0150000   0.5150000), wk =   0.0066225
        k(  300) = (   0.5000000   0.0100000   0.5100000), wk =   0.0066225
        k(  301) = (   0.5000000   0.0050000   0.5050000), wk =   0.0066225
        k(  302) = (   0.5000000   0.0000000   0.5000000), wk =   0.0066225

     Dense  grid:    10417 G-vectors     FFT dimensions: (  32,  32,  32)

     Dynamical RAM for                 wfc:       0.02 MB

     Dynamical RAM for     wfc (w. buffer):       0.02 MB

     Dynamical RAM for           str. fact:       0.03 MB

     Dynamical RAM for           local pot:       0.00 MB

     Dynamical RAM for          nlocal pot:       0.01 MB

     Dynamical RAM for                qrad:       0.17 MB

     Dynamical RAM for          rho,v,vnew:       0.11 MB

     Dynamical RAM for           G-vectors:       0.06 MB

     Dynamical RAM for          h,s,v(r/c):       0.00 MB

     Dynamical RAM for          <psi|beta>:       0.00 MB

     Dynamical RAM for      wfcinit/wfcrot:       0.05 MB

     Estimated static dynamical RAM per process >       0.56 MB

     Estimated max dynamical RAM per process >       0.62 MB

     Estimated total dynamical RAM >      51.80 MB

     The potential is recalculated from file :
     run_output/AlAs.save/charge-density

     Starting wfcs are    8 randomized atomic wfcs +    7 random wfcs

     Band Structure Calculation
     CG style diagonalization

     Computing kpt #:     1  of    44 on this pool
     total cpu time spent up to now is        0.9 secs

     Computing kpt #:     2  of    44 on this pool
     total cpu time spent up to now is        1.1 secs

     Computing kpt #:     3  of    44 on this pool
     total cpu time spent up to now is        1.4 secs

     Computing kpt #:     4  of    44 on this pool
     total cpu time spent up to now is        1.6 secs

     Computing kpt #:     5  of    44 on this pool
     total cpu time spent up to now is        1.9 secs

     Computing kpt #:     6  of    44 on this pool
     total cpu time spent up to now is        2.1 secs

     Computing kpt #:     7  of    44 on this pool
     total cpu time spent up to now is        2.4 secs

     Computing kpt #:     8  of    44 on this pool
     total cpu time spent up to now is        2.7 secs

     Computing kpt #:     9  of    44 on this pool
     total cpu time spent up to now is        2.9 secs

     Computing kpt #:    10  of    44 on this pool
     total cpu time spent up to now is        3.2 secs

     Computing kpt #:    11  of    44 on this pool
     total cpu time spent up to now is        3.4 secs

     Computing kpt #:    12  of    44 on this pool
     total cpu time spent up to now is        3.7 secs

     Computing kpt #:    13  of    44 on this pool
     total cpu time spent up to now is        3.9 secs

     Computing kpt #:    14  of    44 on this pool
     total cpu time spent up to now is        4.2 secs

     Computing kpt #:    15  of    44 on this pool
     total cpu time spent up to now is        4.5 secs

     Computing kpt #:    16  of    44 on this pool
     total cpu time spent up to now is        4.7 secs

     Computing kpt #:    17  of    44 on this pool
     total cpu time spent up to now is        5.0 secs

     Computing kpt #:    18  of    44 on this pool
     total cpu time spent up to now is        5.2 secs

     Computing kpt #:    19  of    44 on this pool
     total cpu time spent up to now is        5.5 secs

     Computing kpt #:    20  of    44 on this pool
     total cpu time spent up to now is        5.7 secs

     Computing kpt #:    21  of    44 on this pool
     c_bands:  1 eigenvalues not converged
     total cpu time spent up to now is        6.0 secs

     Computing kpt #:    22  of    44 on this pool
     total cpu time spent up to now is        6.2 secs

     Computing kpt #:    23  of    44 on this pool
     total cpu time spent up to now is        6.5 secs

     Computing kpt #:    24  of    44 on this pool
     total cpu time spent up to now is        6.8 secs

     Computing kpt #:    25  of    44 on this pool
     total cpu time spent up to now is        7.1 secs

     Computing kpt #:    26  of    44 on this pool
     total cpu time spent up to now is        7.3 secs

     Computing kpt #:    27  of    44 on this pool
     total cpu time spent up to now is        7.6 secs

     Computing kpt #:    28  of    44 on this pool
     total cpu time spent up to now is        7.9 secs

     Computing kpt #:    29  of    44 on this pool
     total cpu time spent up to now is        8.2 secs

     Computing kpt #:    30  of    44 on this pool
     total cpu time spent up to now is        8.5 secs

     Computing kpt #:    31  of    44 on this pool
     total cpu time spent up to now is        8.8 secs

     Computing kpt #:    32  of    44 on this pool
     total cpu time spent up to now is        9.1 secs

     Computing kpt #:    33  of    44 on this pool
     total cpu time spent up to now is        9.3 secs

     Computing kpt #:    34  of    44 on this pool
     total cpu time spent up to now is        9.6 secs

     Computing kpt #:    35  of    44 on this pool
     total cpu time spent up to now is        9.9 secs

     Computing kpt #:    36  of    44 on this pool
     total cpu time spent up to now is       10.1 secs

     Computing kpt #:    37  of    44 on this pool
     total cpu time spent up to now is       10.4 secs

     Computing kpt #:    38  of    44 on this pool
     total cpu time spent up to now is       10.7 secs

     Computing kpt #:    39  of    44 on this pool
     total cpu time spent up to now is       10.9 secs

     Computing kpt #:    40  of    44 on this pool
     total cpu time spent up to now is       11.2 secs

     Computing kpt #:    41  of    44 on this pool
     c_bands:  1 eigenvalues not converged
     total cpu time spent up to now is       11.4 secs

     Computing kpt #:    42  of    44 on this pool
     c_bands:  1 eigenvalues not converged
     total cpu time spent up to now is       11.7 secs

     Computing kpt #:    43  of    44 on this pool
     c_bands:  1 eigenvalues not converged
     total cpu time spent up to now is       11.9 secs

     Computing kpt #:    44  of    44 on this pool
     c_bands:  1 eigenvalues not converged
     total cpu time spent up to now is       12.2 secs

     ethr =  1.25E-12,  avg # of iterations = 45.6

     total cpu time spent up to now is       12.2 secs

     End of band structure calculation

          k = 0.0000 0.0000 0.0000 (  1291 PWs)   bands (ev):

    -7.2396   4.5964   4.5964   4.5964   6.7261   8.8967   8.8967   8.8967
    13.3887  13.6212  13.6212  16.0232  16.0232  16.0232  19.3682

     occupation numbers 
     1.0000   1.0000   1.0000   1.0000   0.0000   0.0000   0.0000   0.0000
     0.0000   0.0000   0.0000   0.0000   0.0000   0.0000   0.0000

          k =-0.0200 0.0000 0.0000 (  1323 PWs)   bands (ev):

    -7.2384   4.5810   4.5926   4.5926   6.7410   8.8913   8.9024   8.9024
    13.3964  13.6010  13.6230  16.0262  16.0262  16.0380  19.3817

     occupation numbers 
     1.0000   1.0000   1.0000   1.0000   0.0000   0.0000   0.0000   0.0000
     0.0000   0.0000   0.0000   0.0000   0.0000   0.0000   0.0000

          k =-0.0400 0.0000 0.0000 (  1323 PWs)   bands (ev):

    -7.2345   4.5365   4.5813   4.5813   6.7877   8.8755   8.9196   8.9196
    13.4187  13.5433  13.6284  16.0355  16.0355  16.0806  19.4225

     occupation numbers 
     1.0000   1.0000   1.0000   1.0000   0.0000   0.0000   0.0000   0.0000
     0.0000   0.0000   0.0000   0.0000   0.0000   0.0000   0.0000

          k =-0.0600 0.0000 0.0000 (  1315 PWs)   bands (ev):

    -7.2279   4.4664   4.5627   4.5627   6.8617   8.8496   8.9479   8.9479
    13.4291  13.4795  13.6376  16.0510  16.0510  16.1462  19.4904

     occupation numbers 
     1.0000   1.0000   1.0000   1.0000   0.0000   0.0000   0.0000   0.0000
     0.0000   0.0000   0.0000   0.0000   0.0000   0.0000   0.0000

          k =-0.0800 0.0000 0.0000 (  1315 PWs)   bands (ev):

    -7.2188   4.3751   4.5371   4.5371   6.9576   8.8141   8.9872   8.9872
    13.3218  13.5212  13.6503  16.0726  16.0726  16.2286  19.5849

     occupation numbers 
     1.0000   1.0000   1.0000   1.0000   0.0000   0.0000   0.0000   0.0000
     0.0000   0.0000   0.0000   0.0000   0.0000   0.0000   0.0000

          k =-0.1000 0.0000 0.0000 (  1307 PWs)   bands (ev):

    -7.2070   4.2673   4.5049   4.5049   7.0712   8.7697   9.0369   9.0369
    13.1821  13.5893  13.6668  16.1004  16.1004  16.3221  19.7053

     occupation numbers 
     1.0000   1.0000   1.0000   1.0000   0.0000   0.0000   0.0000   0.0000
     0.0000   0.0000   0.0000   0.0000   0.0000   0.0000   0.0000

          k =-0.1200 0.0000 0.0000 (  1307 PWs)   bands (ev):

    -7.1927   4.1471   4.4667   4.4667   7.1976   8.7174   9.0965   9.0965
    13.0270  13.6718  13.6868  16.1344  16.1344  16.4218  19.8506

     occupation numbers 
     1.0000   1.0000   1.0000   1.0000   0.0000   0.0000   0.0000   0.0000
     0.0000   0.0000   0.0000   0.0000   0.0000   0.0000   0.0000

          k =-0.1400 0.0000 0.0000 (  1307 PWs)   bands (ev):

    -7.1759   4.0176   4.4231   4.4231   7.3333   8.6579   9.1653   9.1653
    12.8624  13.7105  13.7671  16.1746  16.1746  16.5242  20.0197

     occupation numbers 
     1.0000   1.0000   1.0000   1.0000   0.0000   0.0000   0.0000   0.0000
     0.0000   0.0000   0.0000   0.0000   0.0000   0.0000   0.0000

          k =-0.1600 0.0000 0.0000 (  1299 PWs)   bands (ev):

    -7.1564   3.8813   4.3746   4.3746   7.4753   8.5922   9.2429   9.2429
    12.6926  13.7379  13.8742  16.2210  16.2210  16.6273  20.2109

     occupation numbers 
     1.0000   1.0000   1.0000   1.0000   0.0000   0.0000   0.0000   0.0000
     0.0000   0.0000   0.0000   0.0000   0.0000   0.0000   0.0000

          k =-0.1800 0.0000 0.0000 (  1299 PWs)   bands (ev):

    -7.1345   3.7401   4.3218   4.3218   7.6207   8.5213   9.3285   9.3285
    12.5213  13.7689  13.9920  16.2736  16.2736  16.7297  20.4225

     occupation numbers 
     1.0000   1.0000   1.0000   1.0000   0.0000   0.0000   0.0000   0.0000
     0.0000   0.0000   0.0000   0.0000   0.0000   0.0000   0.0000

          k =-0.2000 0.0000 0.0000 (  1299 PWs)   bands (ev):

    -7.1101   3.5953   4.2653   4.2653   7.7670   8.4460   9.4216   9.4216
    12.3518  13.8036  14.1196  16.3324  16.3324  16.8310  20.6527

     occupation numbers 
     1.0000   1.0000   1.0000   1.0000   0.0000   0.0000   0.0000   0.0000
     0.0000   0.0000   0.0000   0.0000   0.0000   0.0000   0.0000

          k =-0.2200 0.0000 0.0000 (  1307 PWs)   bands (ev):

    -7.0834   3.4481   4.2057   4.2057   7.9117   8.3673   9.5215   9.5215
    12.1872  13.8419  14.2560  16.3974  16.3974  16.9312  20.8994

     occupation numbers 
     1.0000   1.0000   1.0000   1.0000   0.0000   0.0000   0.0000   0.0000
     0.0000   0.0000   0.0000   0.0000   0.0000   0.0000   0.0000

          k =-0.2400 0.0000 0.0000 (  1307 PWs)   bands (ev):

    -7.0541   3.2993   4.1436   4.1436   8.0515   8.2865   9.6276   9.6276
    12.0305  13.8838  14.4005  16.4686  16.4686  17.0306  21.1608

     occupation numbers 
     1.0000   1.0000   1.0000   1.0000   0.0000   0.0000   0.0000   0.0000
     0.0000   0.0000   0.0000   0.0000   0.0000   0.0000   0.0000

          k =-0.2600 0.0000 0.0000 (  1307 PWs)   bands (ev):

    -7.0224   3.1496   4.0795   4.0795   8.1680   8.2202   9.7394   9.7394
    11.8850  13.9294  14.5523  16.5459  16.5459  17.1298  21.4349

     occupation numbers 
     1.0000   1.0000   1.0000   1.0000   0.0000   0.0000   0.0000   0.0000
     0.0000   0.0000   0.0000   0.0000   0.0000   0.0000   0.0000

          k =-0.2800 0.0000 0.0000 (  1307 PWs)   bands (ev):

    -6.9883   2.9994   4.0137   4.0137   8.1100   8.3168   9.8564   9.8564
    11.7542  13.9786  14.7106  16.6294  16.6294  17.2292  21.7197

     occupation numbers 
     1.0000   1.0000   1.0000   1.0000   0.0000   0.0000   0.0000   0.0000
     0.0000   0.0000   0.0000   0.0000   0.0000   0.0000   0.0000

          k =-0.3000 0.0000 0.0000 (  1307 PWs)   bands (ev):

    -6.9519   2.8491   3.9469   3.9469   8.0243   8.4265   9.9781   9.9781
    11.6419  14.0315  14.8747  16.7190  16.7190  17.3295  22.0132

     occupation numbers 
     1.0000   1.0000   1.0000   1.0000   0.0000   0.0000   0.0000   0.0000
     0.0000   0.0000   0.0000   0.0000   0.0000   0.0000   0.0000

          k =-0.3200 0.0000 0.0000 (  1307 PWs)   bands (ev):

    -6.9133   2.6990   3.8793   3.8793   7.9368   8.5201  10.1041  10.1041
    11.5522  14.0880  15.0440  16.8147  16.8147  17.4314  22.3131

     occupation numbers 
     1.0000   1.0000   1.0000   1.0000   0.0000   0.0000   0.0000   0.0000
     0.0000   0.0000   0.0000   0.0000   0.0000   0.0000   0.0000

          k =-0.3400 0.0000 0.0000 (  1311 PWs)   bands (ev):

    -6.8725   2.5494   3.8113   3.8113   7.8487   8.5928  10.2340  10.2340
    11.4892  14.1481  15.2179  16.9163  16.9163  17.5352  22.6166

     occupation numbers 
     1.0000   1.0000   1.0000   1.0000   0.0000   0.0000   0.0000   0.0000
     0.0000   0.0000   0.0000   0.0000   0.0000   0.0000   0.0000

          k =-0.3600 0.0000 0.0000 (  1311 PWs)   bands (ev):

    -6.8295   2.4006   3.7433   3.7433   7.7606   8.6413  10.3674  10.3674
    11.4563  14.2119  15.3957  17.0239  17.0239  17.6416  22.9203

     occupation numbers 
     1.0000   1.0000   1.0000   1.0000   0.0000   0.0000   0.0000   0.0000
     0.0000   0.0000   0.0000   0.0000   0.0000   0.0000   0.0000

          k =-0.3800 0.0000 0.0000 (  1311 PWs)   bands (ev):

    -6.7844   2.2526   3.6755   3.6755   7.6728   8.6636  10.5039  10.5039
    11.4556  14.2793  15.5768  17.1373  17.1373  17.7510  23.2186

     occupation numbers 
     1.0000   1.0000   1.0000   1.0000   0.0000   0.0000   0.0000   0.0000
     0.0000   0.0000   0.0000   0.0000   0.0000   0.0000   0.0000

          k =-0.4000 0.0000 0.0000 (  1307 PWs)   bands (ev):

    -6.7373   2.1057   3.6082   3.6082   7.5856   8.6597  10.6434  10.6434
    11.4872  14.3503  15.7607  17.2563  17.2563  17.8639  23.3670

     occupation numbers 
     1.0000   1.0000   1.0000   1.0000   0.0000   0.0000   0.0000   0.0000
     0.0000   0.0000   0.0000   0.0000   0.0000   0.0000   0.0000

          k =-0.4200 0.0000 0.0000 (  1307 PWs)   bands (ev):

    -6.6883   1.9599   3.5417   3.5417   7.4992   8.6312  10.7854  10.7854
    11.5495  14.4250  15.9465  17.3807  17.3807  17.9807  23.1127

     occupation numbers 
     1.0000   1.0000   1.0000   1.0000   0.0000   0.0000   0.0000   0.0000
     0.0000   0.0000   0.0000   0.0000   0.0000   0.0000   0.0000

          k =-0.4400 0.0000 0.0000 (  1307 PWs)   bands (ev):

    -6.6375   1.8156   3.4761   3.4761   7.4139   8.5816  10.9298  10.9298
    11.6391  14.5033  16.1337  17.5104  17.5104  18.1018  22.8617

     occupation numbers 
     1.0000   1.0000   1.0000   1.0000   0.0000   0.0000   0.0000   0.0000
     0.0000   0.0000   0.0000   0.0000   0.0000   0.0000   0.0000

          k =-0.4600 0.0000 0.0000 (  1307 PWs)   bands (ev):

    -6.5849   1.6726   3.4116   3.4116   7.3298   8.5147  11.0763  11.0763
    11.7520  14.5852  16.3214  17.6448  17.6448  18.2276  22.6145

     occupation numbers 
     1.0000   1.0000   1.0000   1.0000   0.0000   0.0000   0.0000   0.0000
     0.0000   0.0000   0.0000   0.0000   0.0000   0.0000   0.0000

          k =-0.4800 0.0000 0.0000 (  1307 PWs)   bands (ev):

    -6.5307   1.5313   3.3485   3.3485   7.2472   8.4347  11.2248  11.2248
    11.8842  14.6707  16.5089  17.7836  17.7836  18.3586  22.3717

     occupation numbers 
     1.0000   1.0000   1.0000   1.0000   0.0000   0.0000   0.0000   0.0000
     0.0000   0.0000   0.0000   0.0000   0.0000   0.0000   0.0000

          k =-0.5000 0.0000 0.0000 (  1299 PWs)   bands (ev):

    -6.4749   1.3917   3.2868   3.2868   7.1660   8.3455  11.3750  11.3750
    12.0320  14.7598  16.6951  17.9260  17.9260  18.4951  22.1341

     occupation numbers 
     1.0000   1.0000   1.0000   1.0000   0.0000   0.0000   0.0000   0.0000
     0.0000   0.0000   0.0000   0.0000   0.0000   0.0000   0.0000

          k =-0.5200 0.0000 0.0000 (  1299 PWs)   bands (ev):

    -6.4178   1.2540   3.2268   3.2268   7.0866   8.2500  11.5267  11.5267
    12.1920  14.8526  16.8792  18.0712  18.0712  18.6375  21.9027

     occupation numbers 
     1.0000   1.0000   1.0000   1.0000   0.0000   0.0000   0.0000   0.0000
     0.0000   0.0000   0.0000   0.0000   0.0000   0.0000   0.0000

          k =-0.5400 0.0000 0.0000 (  1307 PWs)   bands (ev):

    -6.3595   1.1183   3.1685   3.1685   7.0089   8.1510  11.6799  11.6799
    12.3615  14.9490  17.0598  18.2178  18.2178  18.7861  21.6790

     occupation numbers 
     1.0000   1.0000   1.0000   1.0000   0.0000   0.0000   0.0000   0.0000
     0.0000   0.0000   0.0000   0.0000   0.0000   0.0000   0.0000

          k =-0.5600 0.0000 0.0000 (  1315 PWs)   bands (ev):

    -6.3003   0.9848   3.1120   3.1120   6.9331   8.0504  11.8342  11.8342
    12.5383  15.0489  17.2357  18.3639  18.3639  18.9415  21.4648

     occupation numbers 
     1.0000   1.0000   1.0000   1.0000   0.0000   0.0000   0.0000   0.0000
     0.0000   0.0000   0.0000   0.0000   0.0000   0.0000   0.0000

          k =-0.5800 0.0000 0.0000 (  1311 PWs)   bands (ev):

    -6.2399   0.8536   3.0575   3.0575   6.8593   7.9500  11.9897  11.9897
    12.7209  15.1525  17.4056  18.5066  18.5066  19.1039  21.2632

     occupation numbers 
     1.0000   1.0000   1.0000   1.0000   0.0000   0.0000   0.0000   0.0000
     0.0000   0.0000   0.0000   0.0000   0.0000   0.0000   0.0000

          k =-0.6000 0.0000 0.0000 (  1311 PWs)   bands (ev):

    -6.1789   0.7251   3.0051   3.0051   6.7877   7.8511  12.1460  12.1460
    12.9074  15.2596  17.5679  18.6416  18.6416  19.2736  21.0786

     occupation numbers 
     1.0000   1.0000   1.0000   1.0000   0.0000   0.0000   0.0000   0.0000
     0.0000   0.0000   0.0000   0.0000   0.0000   0.0000   0.0000

          k =-0.6200 0.0000 0.0000 (  1303 PWs)   bands (ev):

    -6.1173   0.5993   2.9547   2.9547   6.7182   7.7546  12.3032  12.3032
    13.0970  15.3703  17.7210  18.7624  18.7624  19.4509  20.9175

     occupation numbers 
     1.0000   1.0000   1.0000   1.0000   0.0000   0.0000   0.0000   0.0000
     0.0000   0.0000   0.0000   0.0000   0.0000   0.0000   0.0000

          k =-0.6400 0.0000 0.0000 (  1299 PWs)   bands (ev):

    -6.0555   0.4765   2.9066   2.9066   6.6511   7.6613  12.4609  12.4609
    13.2883  15.4846  17.8633  18.8596  18.8596  19.6357  20.7893

     occupation numbers 
     1.0000   1.0000   1.0000   1.0000   0.0000   0.0000   0.0000   0.0000
     0.0000   0.0000   0.0000   0.0000   0.0000   0.0000   0.0000

          k =-0.6600 0.0000 0.0000 (  1299 PWs)   bands (ev):

    -5.9937   0.3569   2.8608   2.8608   6.5863   7.5719  12.6191  12.6191
    13.4805  15.6024  17.9930  18.9214  18.9214  19.8281  20.7060

     occupation numbers 
     1.0000   1.0000   1.0000   1.0000   0.0000   0.0000   0.0000   0.0000
     0.0000   0.0000   0.0000   0.0000   0.0000   0.0000   0.0000

          k =-0.6800 0.0000 0.0000 (  1299 PWs)   bands (ev):

    -5.9323   0.2409   2.8173   2.8173   6.5241   7.4868  12.7775  12.7775
    13.6726  15.7238  18.1085  18.9368  18.9368  20.0278  20.6786

     occupation numbers 
     1.0000   1.0000   1.0000   1.0000   0.0000   0.0000   0.0000   0.0000
[...]
     0.0000   0.0000   0.0000   0.0000   0.0000   0.0000   0.0000

          k =-1.0000 0.4600 0.0000 (  1306 PWs)   bands (ev):

    -5.2712  -0.4716   1.4532   1.8161   8.7201   9.8956  10.4979  10.8655
    15.0004  16.7572  17.0347  18.6460  20.9166  21.5398  22.5248

     occupation numbers 
     1.0000   1.0000   1.0000   1.0000   0.0000   0.0000   0.0000   0.0000
     0.0000   0.0000   0.0000   0.0000   0.0000   0.0000   0.0000

          k =-1.0000 0.4500 0.0000 (  1306 PWs)   bands (ev):

    -5.2714  -0.4757   1.4621   1.8207   8.6628   9.7966  10.5632  10.9717
    14.9998  16.7574  17.0341  18.6422  20.9226  21.5489  22.5308

     occupation numbers 
     1.0000   1.0000   1.0000   1.0000   0.0000   0.0000   0.0000   0.0000
     0.0000   0.0000   0.0000   0.0000   0.0000   0.0000   0.0000

          k =-1.0000 0.4400 0.0000 (  1302 PWs)   bands (ev):

    -5.2717  -0.4806   1.4728   1.8263   8.5979   9.6962  10.6379  11.0810
    14.9990  16.7576  17.0335  18.6378  20.9298  21.5598  22.5381

     occupation numbers 
     1.0000   1.0000   1.0000   1.0000   0.0000   0.0000   0.0000   0.0000
     0.0000   0.0000   0.0000   0.0000   0.0000   0.0000   0.0000

          k =-1.0000 0.4300 0.0000 (  1294 PWs)   bands (ev):

    -5.2720  -0.4863   1.4853   1.8329   8.5271   9.5952  10.7204  11.1924
    14.9981  16.7578  17.0327  18.6326  20.9378  21.5723  22.5469

     occupation numbers 
     1.0000   1.0000   1.0000   1.0000   0.0000   0.0000   0.0000   0.0000
     0.0000   0.0000   0.0000   0.0000   0.0000   0.0000   0.0000

          k =-1.0000 0.4200 0.0000 (  1298 PWs)   bands (ev):

    -5.2725  -0.4928   1.4996   1.8405   8.4518   9.4944  10.8090  11.3053
    14.9971  16.7581  17.0319  18.6266  20.9464  21.5859  22.4860

     occupation numbers 
     1.0000   1.0000   1.0000   1.0000   0.0000   0.0000   0.0000   0.0000
     0.0000   0.0000   0.0000   0.0000   0.0000   0.0000   0.0000

          k =-1.0000 0.4100 0.0000 (  1302 PWs)   bands (ev):

    -5.2731  -0.4999   1.5156   1.8491   8.3731   9.3939  10.9029  11.4195
    14.9960  16.7585  17.0309  18.6199  20.9553  21.6005  22.4153

     occupation numbers 
     1.0000   1.0000   1.0000   1.0000   0.0000   0.0000   0.0000   0.0000
     0.0000   0.0000   0.0000   0.0000   0.0000   0.0000   0.0000

          k =-1.0000 0.4000 0.0000 (  1302 PWs)   bands (ev):

    -5.2736  -0.5077   1.5332   1.8586   8.2920   9.2940  11.0010  11.5346
    14.9948  16.7589  17.0298  18.6127  20.9641  21.6154  22.3412

     occupation numbers 
     1.0000   1.0000   1.0000   1.0000   0.0000   0.0000   0.0000   0.0000
     0.0000   0.0000   0.0000   0.0000   0.0000   0.0000   0.0000

          k =-1.0000 0.3900 0.0000 (  1302 PWs)   bands (ev):

    -5.2742  -0.5161   1.5523   1.8691   8.2091   9.1950  11.1026  11.6506
    14.9935  16.7594  17.0287  18.6048  20.9720  21.6299  22.2651

     occupation numbers 
     1.0000   1.0000   1.0000   1.0000   0.0000   0.0000   0.0000   0.0000
     0.0000   0.0000   0.0000   0.0000   0.0000   0.0000   0.0000

          k =-1.0000 0.3800 0.0000 (  1302 PWs)   bands (ev):

    -5.2749  -0.5251   1.5729   1.8804   8.1250   9.0968  11.2071  11.7672
    14.9922  16.7600  17.0275  18.5965  20.9782  21.6430  22.1882

     occupation numbers 
     1.0000   1.0000   1.0000   1.0000   0.0000   0.0000   0.0000   0.0000
     0.0000   0.0000   0.0000   0.0000   0.0000   0.0000   0.0000

          k =-1.0000 0.3700 0.0000 (  1298 PWs)   bands (ev):

    -5.2755  -0.5344   1.5950   1.8927   8.0402   8.9996  11.3141  11.8845
    14.9908  16.7607  17.0262  18.5876  20.9818  21.6533  22.1124

     occupation numbers 
     1.0000   1.0000   1.0000   1.0000   0.0000   0.0000   0.0000   0.0000
     0.0000   0.0000   0.0000   0.0000   0.0000   0.0000   0.0000

          k =-1.0000 0.3600 0.0000 (  1298 PWs)   bands (ev):

    -5.2762  -0.5442   1.6183   1.9058   7.9551   8.9036  11.4232  12.0023
    14.9894  16.7615  17.0249  18.5784  20.9811  21.6585  22.0393

     occupation numbers 
     1.0000   1.0000   1.0000   1.0000   0.0000   0.0000   0.0000   0.0000
     0.0000   0.0000   0.0000   0.0000   0.0000   0.0000   0.0000

          k =-1.0000 0.3500 0.0000 (  1298 PWs)   bands (ev):

    -5.2770  -0.5544   1.6428   1.9198   7.8699   8.8087  11.5340  12.1205
    14.9881  16.7625  17.0235  18.5687  20.9746  21.6558  21.9713

     occupation numbers 
     1.0000   1.0000   1.0000   1.0000   0.0000   0.0000   0.0000   0.0000
     0.0000   0.0000   0.0000   0.0000   0.0000   0.0000   0.0000

          k =-1.0000 0.3400-0.0000 (  1298 PWs)   bands (ev):

    -5.2778  -0.5649   1.6685   1.9345   7.7850   8.7150  11.6463  12.2391
    14.9868  16.7636  17.0221  18.5587  20.9600  21.6415  21.9108

     occupation numbers 
     1.0000   1.0000   1.0000   1.0000   0.0000   0.0000   0.0000   0.0000
     0.0000   0.0000   0.0000   0.0000   0.0000   0.0000   0.0000

          k =-1.0000 0.3300 0.0000 (  1300 PWs)   bands (ev):

    -5.2787  -0.5755   1.6951   1.9500   7.7005   8.6226  11.7599  12.3580
    14.9855  16.7649  17.0206  18.5484  20.9352  21.6115  21.8602

     occupation numbers 
     1.0000   1.0000   1.0000   1.0000   0.0000   0.0000   0.0000   0.0000
     0.0000   0.0000   0.0000   0.0000   0.0000   0.0000   0.0000

          k =-1.0000 0.3200 0.0000 (  1304 PWs)   bands (ev):

    -5.2796  -0.5864   1.7228   1.9663   7.6167   8.5316  11.8745  12.4771
    14.9844  16.7664  17.0192  18.5379  20.8984  21.5629  21.8217

     occupation numbers 
     1.0000   1.0000   1.0000   1.0000   0.0000   0.0000   0.0000   0.0000
     0.0000   0.0000   0.0000   0.0000   0.0000   0.0000   0.0000

          k =-1.0000 0.3100 0.0000 (  1304 PWs)   bands (ev):

    -5.2805  -0.5974   1.7512   1.9832   7.5337   8.4420  11.9900  12.5963
    14.9835  16.7682  17.0177  18.5272  20.8488  21.4950  21.7962

     occupation numbers 
     1.0000   1.0000   1.0000   1.0000   0.0000   0.0000   0.0000   0.0000
     0.0000   0.0000   0.0000   0.0000   0.0000   0.0000   0.0000

          k =-1.0000 0.3000 0.0000 (  1304 PWs)   bands (ev):

    -5.2814  -0.6085   1.7805   2.0008   7.4516   8.3538  12.1062  12.7156
    14.9827  16.7701  17.0163  18.5164  20.7865  21.4101  21.7840

     occupation numbers 
     1.0000   1.0000   1.0000   1.0000   0.0000   0.0000   0.0000   0.0000
     0.0000   0.0000   0.0000   0.0000   0.0000   0.0000   0.0000

          k =-1.0000 0.2900 0.0000 (  1300 PWs)   bands (ev):

    -5.2823  -0.6196   1.8103   2.0190   7.3707   8.2673  12.2229  12.8348
    14.9822  16.7724  17.0149  18.5055  20.7126  21.3116  21.7840

     occupation numbers 
     1.0000   1.0000   1.0000   1.0000   0.0000   0.0000   0.0000   0.0000
     0.0000   0.0000   0.0000   0.0000   0.0000   0.0000   0.0000

          k =-1.0000 0.2800 0.0000 (  1298 PWs)   bands (ev):

    -5.2832  -0.6307   1.8408   2.0378   7.2909   8.1823  12.3399  12.9539
    14.9821  16.7750  17.0136  18.4945  20.6289  21.2030  21.7947

     occupation numbers 
     1.0000   1.0000   1.0000   1.0000   0.0000   0.0000   0.0000   0.0000
     0.0000   0.0000   0.0000   0.0000   0.0000   0.0000   0.0000

          k =-1.0000 0.2700 0.0000 (  1298 PWs)   bands (ev):

    -5.2842  -0.6417   1.8717   2.0571   7.2125   8.0991  12.4572  13.0726
    14.9823  16.7779  17.0123  18.4835  20.5372  21.0872  21.8145

     occupation numbers 
     1.0000   1.0000   1.0000   1.0000   0.0000   0.0000   0.0000   0.0000
     0.0000   0.0000   0.0000   0.0000   0.0000   0.0000   0.0000

          k =-1.0000 0.2600 0.0000 (  1298 PWs)   bands (ev):

    -5.2851  -0.6526   1.9029   2.0767   7.1355   8.0176  12.5745  13.1910
    14.9831  16.7812  17.0111  18.4725  20.4390  20.9664  21.8418

     occupation numbers 
     1.0000   1.0000   1.0000   1.0000   0.0000   0.0000   0.0000   0.0000
     0.0000   0.0000   0.0000   0.0000   0.0000   0.0000   0.0000

          k =-1.0000 0.2500 0.0000 (  1298 PWs)   bands (ev):

    -5.2861  -0.6634   1.9344   2.0968   7.0601   7.9379  12.6918  13.3087
    14.9845  16.7850  17.0101  18.4616  20.3358  20.8422  21.8755

     occupation numbers 
     1.0000   1.0000   1.0000   1.0000   0.0000   0.0000   0.0000   0.0000
     0.0000   0.0000   0.0000   0.0000   0.0000   0.0000   0.0000

          k =-1.0000 0.2400 0.0000 (  1298 PWs)   bands (ev):

    -5.2871  -0.6741   1.9661   2.1172   6.9864   7.8601  12.8087  13.4255
    14.9868  16.7893  17.0091  18.4508  20.2287  20.7157  21.9145

     occupation numbers 
     1.0000   1.0000   1.0000   1.0000   0.0000   0.0000   0.0000   0.0000
     0.0000   0.0000   0.0000   0.0000   0.0000   0.0000   0.0000

          k =-1.0000 0.2300 0.0000 (  1298 PWs)   bands (ev):

    -5.2880  -0.6845   1.9978   2.1379   6.9144   7.7844  12.9252  13.5412
    14.9900  16.7941  17.0083  18.4401  20.1185  20.5876  21.9582

     occupation numbers 
     1.0000   1.0000   1.0000   1.0000   0.0000   0.0000   0.0000   0.0000
     0.0000   0.0000   0.0000   0.0000   0.0000   0.0000   0.0000

          k =-1.0000 0.2200 0.0000 (  1298 PWs)   bands (ev):

    -5.2890  -0.6946   2.0294   2.1587   6.8442   7.7107  13.0411  13.6556
    14.9944  16.7995  17.0077  18.4296  20.0059  20.4586  22.0059

     occupation numbers 
     1.0000   1.0000   1.0000   1.0000   0.0000   0.0000   0.0000   0.0000
     0.0000   0.0000   0.0000   0.0000   0.0000   0.0000   0.0000

          k =-1.0000 0.2100 0.0000 (  1298 PWs)   bands (ev):

    -5.2899  -0.7045   2.0609   2.1796   6.7761   7.6392  13.1562  13.7680
    15.0004  16.8057  17.0074  18.4192  19.8915  20.3293  22.0572

     occupation numbers 
     1.0000   1.0000   1.0000   1.0000   0.0000   0.0000   0.0000   0.0000
     0.0000   0.0000   0.0000   0.0000   0.0000   0.0000   0.0000

          k =-1.0000 0.2000 0.0000 (  1298 PWs)   bands (ev):

    -5.2909  -0.7141   2.0920   2.2005   6.7100   7.5700  13.2701  13.8781
    15.0083  16.8126  17.0073  18.4090  19.7758  20.2000  22.1116

     occupation numbers 
     1.0000   1.0000   1.0000   1.0000   0.0000   0.0000   0.0000   0.0000
     0.0000   0.0000   0.0000   0.0000   0.0000   0.0000   0.0000

          k =-1.0000 0.1900 0.0000 (  1298 PWs)   bands (ev):

    -5.2918  -0.7234   2.1228   2.2214   6.6461   7.5031  13.3828  13.9851
    15.0188  16.8204  17.0075  18.3990  19.6591  20.0711  22.1691

     occupation numbers 
     1.0000   1.0000   1.0000   1.0000   0.0000   0.0000   0.0000   0.0000
     0.0000   0.0000   0.0000   0.0000   0.0000   0.0000   0.0000

          k =-1.0000 0.1800 0.0000 (  1304 PWs)   bands (ev):

    -5.2927  -0.7323   2.1530   2.2421   6.5845   7.4387  13.4939  14.0882
    15.0326  16.8292  17.0080  18.3891  19.5419  19.9430  22.2293

     occupation numbers 
     1.0000   1.0000   1.0000   1.0000   0.0000   0.0000   0.0000   0.0000
     0.0000   0.0000   0.0000   0.0000   0.0000   0.0000   0.0000

          k =-1.0000 0.1700 0.0000 (  1304 PWs)   bands (ev):

    -5.2936  -0.7409   2.1826   2.2625   6.5253   7.3769  13.6031  14.1862
    15.0504  16.8390  17.0090  18.3795  19.4244  19.8159  22.2920

     occupation numbers 
     1.0000   1.0000   1.0000   1.0000   0.0000   0.0000   0.0000   0.0000
     0.0000   0.0000   0.0000   0.0000   0.0000   0.0000   0.0000

          k =-1.0000 0.1600 0.0000 (  1304 PWs)   bands (ev):

    -5.2944  -0.7491   2.2115   2.2826   6.4686   7.3177  13.7102  14.2780
    15.0736  16.8500  17.0105  18.3701  19.3069  19.6903  22.3571

     occupation numbers 
     1.0000   1.0000   1.0000   1.0000   0.0000   0.0000   0.0000   0.0000
     0.0000   0.0000   0.0000   0.0000   0.0000   0.0000   0.0000

          k =-1.0000 0.1500 0.0000 (  1304 PWs)   bands (ev):

    -5.2952  -0.7568   2.2394   2.3022   6.4145   7.2614  13.8147  14.3619
    15.1032  16.8624  17.0125  18.3608  19.1898  19.5665  22.4246

     occupation numbers 
     1.0000   1.0000   1.0000   1.0000   0.0000   0.0000   0.0000   0.0000
     0.0000   0.0000   0.0000   0.0000   0.0000   0.0000   0.0000

          k =-1.0000 0.1400 0.0000 (  1308 PWs)   bands (ev):

    -5.2960  -0.7642   2.2663   2.3213   6.3632   7.2079  13.9162  14.4366
    15.1404  16.8761  17.0152  18.3515  19.0734  19.4450  22.4942

     occupation numbers 
     1.0000   1.0000   1.0000   1.0000   0.0000   0.0000   0.0000   0.0000
     0.0000   0.0000   0.0000   0.0000   0.0000   0.0000   0.0000

          k =-1.0000 0.1300 0.0000 (  1312 PWs)   bands (ev):

    -5.2968  -0.7711   2.2921   2.3397   6.3147   7.1574  14.0143  14.5009
    15.1861  16.8914  17.0187  18.3423  18.9579  19.3261  22.5659

     occupation numbers 
     1.0000   1.0000   1.0000   1.0000   0.0000   0.0000   0.0000   0.0000
     0.0000   0.0000   0.0000   0.0000   0.0000   0.0000   0.0000

          k =-1.0000 0.1200 0.0000 (  1312 PWs)   bands (ev):

    -5.2975  -0.7775   2.3166   2.3573   6.2692   7.1101  14.1085  14.5545
    15.2401  16.9084  17.0231  18.3329  18.8439  19.2105  22.6396

     occupation numbers 
     1.0000   1.0000   1.0000   1.0000   0.0000   0.0000   0.0000   0.0000
     0.0000   0.0000   0.0000   0.0000   0.0000   0.0000   0.0000

          k =-1.0000 0.1100 0.0000 (  1308 PWs)   bands (ev):

    -5.2981  -0.7834   2.3398   2.3741   6.2268   7.0661  14.1984  14.5977
    15.3015  16.9270  17.0285  18.3233  18.7316  19.0989  22.7152

     occupation numbers 
     1.0000   1.0000   1.0000   1.0000   0.0000   0.0000   0.0000   0.0000
     0.0000   0.0000   0.0000   0.0000   0.0000   0.0000   0.0000

          k =-1.0000 0.1000 0.0000 (  1308 PWs)   bands (ev):

    -5.2986  -0.7889   2.3614   2.3898   6.1877   7.0254  14.2833  14.6318
    15.3685  16.9474  17.0351  18.3132  18.6217  18.9920  22.7926

     occupation numbers 
     1.0000   1.0000   1.0000   1.0000   0.0000   0.0000   0.0000   0.0000
     0.0000   0.0000   0.0000   0.0000   0.0000   0.0000   0.0000

          k =-1.0000 0.0900 0.0000 (  1306 PWs)   bands (ev):

    -5.2992  -0.7939   2.3813   2.4044   6.1518   6.9881  14.3627  14.6583
    15.4388  16.9694  17.0431  18.3020  18.5148  18.8909  22.8718

     occupation numbers 
     1.0000   1.0000   1.0000   1.0000   0.0000   0.0000   0.0000   0.0000
     0.0000   0.0000   0.0000   0.0000   0.0000   0.0000   0.0000

          k =-1.0000 0.0800 0.0000 (  1306 PWs)   bands (ev):

    -5.2996  -0.7984   2.3996   2.4178   6.1194   6.9545  14.4359  14.6788
    15.5100  16.9930  17.0527  18.2894  18.4117  18.7970  22.9526

     occupation numbers 
     1.0000   1.0000   1.0000   1.0000   0.0000   0.0000   0.0000   0.0000
     0.0000   0.0000   0.0000   0.0000   0.0000   0.0000   0.0000

          k =-1.0000 0.0700 0.0000 (  1306 PWs)   bands (ev):

    -5.3001  -0.8024   2.4159   2.4299   6.0905   6.9245  14.5023  14.6945
    15.5798  17.0177  17.0639  18.2746  18.3132  18.7120  23.0350

     occupation numbers 
     1.0000   1.0000   1.0000   1.0000   0.0000   0.0000   0.0000   0.0000
     0.0000   0.0000   0.0000   0.0000   0.0000   0.0000   0.0000

          k =-1.0000 0.0600 0.0000 (  1302 PWs)   bands (ev):

    -5.3004  -0.8058   2.4303   2.4406   6.0653   6.8984  14.5615  14.7064
    15.6459  17.0431  17.0766  18.2207  18.2569  18.6378  23.1189

     occupation numbers 
     1.0000   1.0000   1.0000   1.0000   0.0000   0.0000   0.0000   0.0000
     0.0000   0.0000   0.0000   0.0000   0.0000   0.0000   0.0000

          k =-1.0000 0.0500 0.0000 (  1298 PWs)   bands (ev):

    -5.3007  -0.8088   2.4427   2.4499   6.0438   6.8761  14.6126  14.7155
    15.7063  17.0682  17.0908  18.1358  18.2358  18.5762  23.2042

     occupation numbers 
     1.0000   1.0000   1.0000   1.0000   0.0000   0.0000   0.0000   0.0000
     0.0000   0.0000   0.0000   0.0000   0.0000   0.0000   0.0000

          k =-1.0000 0.0400 0.0000 (  1298 PWs)   bands (ev):

    -5.3009  -0.8112   2.4529   2.4575   6.0260   6.8577  14.6553  14.7223
    15.7589  17.0921  17.1057  18.0603  18.2117  18.5285  23.2906

     occupation numbers 
     1.0000   1.0000   1.0000   1.0000   0.0000   0.0000   0.0000   0.0000
     0.0000   0.0000   0.0000   0.0000   0.0000   0.0000   0.0000

          k =-1.0000 0.0300 0.0000 (  1298 PWs)   bands (ev):

    -5.3011  -0.8131   2.4609   2.4635   6.0122   6.8433  14.6890  14.7272
    15.8020  17.1133  17.1203  17.9968  18.1869  18.4943  23.3781

     occupation numbers 
     1.0000   1.0000   1.0000   1.0000   0.0000   0.0000   0.0000   0.0000
     0.0000   0.0000   0.0000   0.0000   0.0000   0.0000   0.0000

          k =-1.0000 0.0200 0.0000 (  1298 PWs)   bands (ev):

    -5.3013  -0.8144   2.4667   2.4679   6.0022   6.8331  14.7134  14.7305
    15.8340  17.1301  17.1329  17.9481  18.1650  18.4720  23.4662

     occupation numbers 
     1.0000   1.0000   1.0000   1.0000   0.0000   0.0000   0.0000   0.0000
     0.0000   0.0000   0.0000   0.0000   0.0000   0.0000   0.0000

          k =-1.0000 0.0100 0.0000 (  1298 PWs)   bands (ev):

    -5.3014  -0.8152   2.4702   2.4705   5.9963   6.8269  14.7281  14.7324
    15.8537  17.1410  17.1417  17.9173  18.1500  18.4596  23.5544

     occupation numbers 
     1.0000   1.0000   1.0000   1.0000   0.0000   0.0000   0.0000   0.0000
     0.0000   0.0000   0.0000   0.0000   0.0000   0.0000   0.0000

          k =-1.0000 0.0000 0.0000 (  1298 PWs)   bands (ev):

    -5.3014  -0.8155   2.4713   2.4713   5.9943   6.8248  14.7331  14.7331
    15.8604  17.1448  17.1448  17.9068  18.1447  18.4556  23.6273

     occupation numbers 
     1.0000   1.0000   1.0000   1.0000   0.0000   0.0000   0.0000   0.0000
     0.0000   0.0000   0.0000   0.0000   0.0000   0.0000   0.0000

     highest occupied, lowest unoccupied level (ev):     4.5964    5.9943

     Writing output data file run_output/AlAs.save/

     init_run     :      0.08s CPU      0.11s WALL (       1 calls)
     electrons    :     11.19s CPU     11.70s WALL (       1 calls)

     Called by init_run:
     wfcinit      :      0.00s CPU      0.01s WALL (       1 calls)
     wfcinit:atom :      0.00s CPU      0.00s WALL (      44 calls)
     wfcinit:wfcr :      0.17s CPU      0.18s WALL (      44 calls)
     potinit      :      0.01s CPU      0.02s WALL (       1 calls)
     hinit0       :      0.01s CPU      0.01s WALL (       1 calls)

     Called by electrons:
     c_bands      :     11.18s CPU     11.66s WALL (       1 calls)
     v_of_rho     :      0.00s CPU      0.00s WALL (       1 calls)
     v_h          :      0.00s CPU      0.00s WALL (       1 calls)
     v_xc         :      0.00s CPU      0.00s WALL (       1 calls)

     Called by c_bands:
     init_us_2    :      0.00s CPU      0.00s WALL (      44 calls)
     ccgdiagg     :      7.10s CPU      7.53s WALL (     166 calls)
     wfcrot       :      0.65s CPU      0.68s WALL (     166 calls)

     Called by sum_band:

     Called by *cgdiagg:
     h_psi        :      5.85s CPU      6.21s WALL (   24937 calls)

     Called by h_psi:
     h_psi:calbec :      0.32s CPU      0.34s WALL (   24937 calls)
     vloc_psi     :      5.31s CPU      5.63s WALL (   24937 calls)
     add_vuspsi   :      0.06s CPU      0.07s WALL (   24937 calls)
     hs_1psi      :      5.54s CPU      5.88s WALL (   24771 calls)
     s_1psi       :      0.34s CPU      0.36s WALL (   24771 calls)

     General routines
     calbec       :      0.48s CPU      0.52s WALL (   49708 calls)
     fft          :      0.00s CPU      0.00s WALL (       3 calls)
     fftw         :      4.37s CPU      4.63s WALL (   54522 calls)
     davcio       :      0.00s CPU      0.00s WALL (      88 calls)

     Parallel routines
     fft_scatt_xy :      0.69s CPU      0.73s WALL (   54525 calls)
     fft_scatt_yz :      1.44s CPU      1.53s WALL (   54525 calls)

     PWSCF        :     11.83s CPU     13.76s WALL


   This run was terminated on:  10:31:35   6Oct2021            

=------------------------------------------------------------------------------=
   JOB DONE.
=------------------------------------------------------------------------------=
