
     Program PWSCF v.6.7MaX starts on 23Dec2021 at 16:28:41 

     This program is part of the open-source Quantum ESPRESSO suite
     for quantum simulation of materials; please cite
         "P. Giannozzi et al., J. Phys.:Condens. Matter 21 395502 (2009);
         "P. Giannozzi et al., J. Phys.:Condens. Matter 29 465901 (2017);
          URL http://www.quantum-espresso.org", 
     in publications or presentations arising from this work. More details at
     http://www.quantum-espresso.org/quote

     Parallel version (MPI), running on    56 processors

     MPI processes distributed on     2 nodes
     K-points division:     npool     =       7
     R & G space division:  proc/nbgrp/npool/nimage =       8
     Waiting for input...
     Reading input from standard input

     Current dimensions of program PWSCF are:
     Max number of different atomic species (ntypx) = 10
     Max number of k-points (npk) =  40000
     Max angular momentum in pseudopotentials (lmaxx) =  3

     Atomic positions and unit cell read from directory:
     run_output/MoS2_2D.save/
     Atomic positions from file used, from input discarded


     Subspace diagonalization in iterative solution of the eigenvalue problem:
     one sub-group per band group will be used
     scalapack distributed-memory algorithm (size of sub-group:  2*  2 procs)


     Parallelization info
     --------------------
     sticks:   dense  smooth     PW     G-vecs:    dense   smooth      PW
     Min          72      72     20                 7072     7072    1132
     Max          74      74     21                 7080     7080    1155
     Sum         583     583    163                56613    56613    9123



     bravais-lattice index     =            4
     lattice parameter (alat)  =       5.8772  a.u.
     unit-cell volume          =     897.4163 (a.u.)^3
     number of atoms/cell      =            3
     number of atomic types    =            2
     number of electrons       =        26.00
     number of Kohn-Sham states=           40
     kinetic-energy cutoff     =      60.0000  Ry
     charge density cutoff     =     240.0000  Ry
     Exchange-correlation= SLA-PZ-NOGX-NOGC
                           (   1   1   0   0   0   0   0)

     celldm(1)=   5.877208  celldm(2)=   0.000000  celldm(3)=   5.104465
     celldm(4)=   0.000000  celldm(5)=   0.000000  celldm(6)=   0.000000

     crystal axes: (cart. coord. in units of alat)
               a(1) = (   1.000000   0.000000   0.000000 )  
               a(2) = (  -0.500000   0.866025   0.000000 )  
               a(3) = (   0.000000   0.000000   5.104465 )  

     reciprocal axes: (cart. coord. in units 2 pi/alat)
               b(1) = (  1.000000  0.577350 -0.000000 )  
               b(2) = (  0.000000  1.154701  0.000000 )  
               b(3) = (  0.000000 -0.000000  0.195907 )  


     PseudoPot. # 1 for Mo read from file:
     PPs/Mo_SR_withPS_PZ.UPF
     MD5 check sum: 19bf02b7f08077cf8574869525df176e
     Pseudo is Norm-conserving + core correction, Zval = 14.0
     Generated using "atomic" code by A. Dal Corso  (Quantum ESPRESSO distribution)
     Using radial grid of 1229 points,  5 beta functions with: 
                l(1) =   0
                l(2) =   0
                l(3) =   1
                l(4) =   2
                l(5) =   2

     PseudoPot. # 2 for S  read from file:
     PPs/S.pz-hgh.UPF
     MD5 check sum: fb24c143a2a3ea3aba309d3cb9e9e6ec
     Pseudo is Norm-conserving, Zval =  6.0
     Generated in analytical, separable form
     Using radial grid of 1151 points,  3 beta functions with: 
                l(1) =   0
                l(2) =   0
                l(3) =   1

     atomic species   valence    mass     pseudopotential
        Mo            14.00    95.94000     Mo( 1.00)
        S              6.00    32.06500     S ( 1.00)

     12 Sym. Ops. (no inversion) found


                                    s                        frac. trans.

      isym =  1     identity                                     

 cryst.   s( 1) = (     1          0          0      )
                  (     0          1          0      )
                  (     0          0          1      )

 cart.    s( 1) = (  1.0000000  0.0000000  0.0000000 )
                  (  0.0000000  1.0000000  0.0000000 )
                  (  0.0000000  0.0000000  1.0000000 )


      isym =  2     180 deg rotation - cart. axis [0,1,0]        

 cryst.   s( 2) = (    -1          0          0      )
                  (     1          1          0      )
                  (     0          0         -1      )

 cart.    s( 2) = ( -1.0000000  0.0000000  0.0000000 )
                  (  0.0000000  1.0000000  0.0000000 )
                  (  0.0000000  0.0000000 -1.0000000 )


      isym =  3     120 deg rotation - cryst. axis [0,0,1]       

 cryst.   s( 3) = (     0          1          0      )
                  (    -1         -1          0      )
                  (     0          0          1      )

 cart.    s( 3) = ( -0.5000000 -0.8660254  0.0000000 )
                  (  0.8660254 -0.5000000  0.0000000 )
                  (  0.0000000  0.0000000  1.0000000 )


      isym =  4     120 deg rotation - cryst. axis [0,0,-1]      

 cryst.   s( 4) = (    -1         -1          0      )
                  (     1          0          0      )
                  (     0          0          1      )

 cart.    s( 4) = ( -0.5000000  0.8660254  0.0000000 )
                  ( -0.8660254 -0.5000000  0.0000000 )
                  (  0.0000000  0.0000000  1.0000000 )


      isym =  5     180 deg rotation - cryst. axis [1,-1,0]      

 cryst.   s( 5) = (     0         -1          0      )
                  (    -1          0          0      )
                  (     0          0         -1      )

 cart.    s( 5) = (  0.5000000 -0.8660254  0.0000000 )
                  ( -0.8660254 -0.5000000  0.0000000 )
                  (  0.0000000  0.0000000 -1.0000000 )


      isym =  6     180 deg rotation - cryst. axis [2,1,0]       

 cryst.   s( 6) = (     1          1          0      )
                  (     0         -1          0      )
                  (     0          0         -1      )

 cart.    s( 6) = (  0.5000000  0.8660254  0.0000000 )
                  (  0.8660254 -0.5000000  0.0000000 )
                  (  0.0000000  0.0000000 -1.0000000 )


      isym =  7     inv. 180 deg rotation - cart. axis [0,0,1]   

 cryst.   s( 7) = (     1          0          0      )
                  (     0          1          0      )
                  (     0          0         -1      )

 cart.    s( 7) = (  1.0000000  0.0000000  0.0000000 )
                  (  0.0000000  1.0000000  0.0000000 )
                  (  0.0000000  0.0000000 -1.0000000 )


      isym =  8     inv. 180 deg rotation - cart. axis [1,0,0]   

 cryst.   s( 8) = (    -1          0          0      )
                  (     1          1          0      )
                  (     0          0          1      )

 cart.    s( 8) = ( -1.0000000  0.0000000  0.0000000 )
                  (  0.0000000  1.0000000  0.0000000 )
                  (  0.0000000  0.0000000  1.0000000 )


      isym =  9     inv.  60 deg rotation - cryst. axis [0,0,1]  

 cryst.   s( 9) = (    -1         -1          0      )
                  (     1          0          0      )
                  (     0          0         -1      )

 cart.    s( 9) = ( -0.5000000  0.8660254  0.0000000 )
                  ( -0.8660254 -0.5000000  0.0000000 )
                  (  0.0000000  0.0000000 -1.0000000 )


      isym = 10     inv.  60 deg rotation - cryst. axis [0,0,-1] 

 cryst.   s(10) = (     0          1          0      )
                  (    -1         -1          0      )
                  (     0          0         -1      )

 cart.    s(10) = ( -0.5000000 -0.8660254  0.0000000 )
                  (  0.8660254 -0.5000000  0.0000000 )
                  (  0.0000000  0.0000000 -1.0000000 )


      isym = 11     inv. 180 deg rotation - cryst. axis [0,1,0]  

 cryst.   s(11) = (     1          1          0      )
                  (     0         -1          0      )
                  (     0          0          1      )

 cart.    s(11) = (  0.5000000  0.8660254  0.0000000 )
                  (  0.8660254 -0.5000000  0.0000000 )
                  (  0.0000000  0.0000000  1.0000000 )


      isym = 12     inv. 180 deg rotation - cryst. axis [1,1,0]  

 cryst.   s(12) = (     0         -1          0      )
                  (    -1          0          0      )
                  (     0          0          1      )

 cart.    s(12) = (  0.5000000 -0.8660254  0.0000000 )
                  ( -0.8660254 -0.5000000  0.0000000 )
                  (  0.0000000  0.0000000  1.0000000 )


     point group D_3h (-62m)
     there are  6 classes
     the character table:

       E     2C3   3C2   s_h   2S3   3s_v 
A'_1   1.00  1.00  1.00  1.00  1.00  1.00
A'_2   1.00  1.00 -1.00  1.00  1.00 -1.00
E'     2.00 -1.00  0.00  2.00 -1.00  0.00
A''1   1.00  1.00  1.00 -1.00 -1.00 -1.00
A''2   1.00  1.00 -1.00 -1.00 -1.00  1.00
E''    2.00 -1.00  0.00 -2.00  1.00  0.00

     the symmetry operations in each class and the name of the first element:

     E        1
          identity                                               
     2C3      3    4
          120 deg rotation - cryst. axis [0,0,1]                 
     3C2      2    6    5
          180 deg rotation - cart. axis [0,1,0]                  
     s_h      7
          inv. 180 deg rotation - cart. axis [0,0,1]             
     2S3      9   10
          inv.  60 deg rotation - cryst. axis [0,0,1]            
     3s_v     8   11   12
          inv. 180 deg rotation - cart. axis [1,0,0]             

   Cartesian axes

     site n.     atom                  positions (alat units)
         1           Mo  tau(   1) = (  -0.0000000   0.5773503   0.0000000  )
         2           S   tau(   2) = (   0.5000000   0.2886751   0.4991315  )
         3           S   tau(   3) = (   0.5000000   0.2886751  -0.4991315  )

   Crystallographic axes

     site n.     atom                  positions (cryst. coord.)
         1           Mo  tau(   1) = (  0.3333333  0.6666667  0.0000000  )
         2           S   tau(   2) = (  0.6666667  0.3333333  0.0977833  )
         3           S   tau(   3) = (  0.6666667  0.3333333 -0.0977833  )

     number of k points=    61  Gaussian smearing, width (Ry)=  0.0017
                       cart. coord. in units 2pi/alat
        k(    1) = (   0.0000000   0.0000000   0.0000000), wk =   0.0034722
        k(    2) = (   0.0000000   0.0481125   0.0000000), wk =   0.0208333
        k(    3) = (   0.0000000   0.0962250   0.0000000), wk =   0.0208333
        k(    4) = (   0.0000000   0.1443376   0.0000000), wk =   0.0208333
        k(    5) = (   0.0000000   0.1924501   0.0000000), wk =   0.0208333
        k(    6) = (   0.0000000   0.2405626   0.0000000), wk =   0.0208333
        k(    7) = (   0.0000000   0.2886751   0.0000000), wk =   0.0208333
        k(    8) = (   0.0000000   0.3367877   0.0000000), wk =   0.0208333
        k(    9) = (   0.0000000   0.3849002   0.0000000), wk =   0.0208333
        k(   10) = (   0.0000000   0.4330127   0.0000000), wk =   0.0208333
        k(   11) = (   0.0000000   0.4811252   0.0000000), wk =   0.0208333
        k(   12) = (   0.0000000   0.5292377   0.0000000), wk =   0.0208333
        k(   13) = (   0.0000000  -0.5773503   0.0000000), wk =   0.0104167
        k(   14) = (   0.0416667   0.0721688   0.0000000), wk =   0.0208333
        k(   15) = (   0.0416667   0.1202813   0.0000000), wk =   0.0416667
        k(   16) = (   0.0416667   0.1683938   0.0000000), wk =   0.0416667
        k(   17) = (   0.0416667   0.2165064   0.0000000), wk =   0.0416667
        k(   18) = (   0.0416667   0.2646189   0.0000000), wk =   0.0416667
        k(   19) = (   0.0416667   0.3127314   0.0000000), wk =   0.0416667
        k(   20) = (   0.0416667   0.3608439   0.0000000), wk =   0.0416667
        k(   21) = (   0.0416667   0.4089564   0.0000000), wk =   0.0416667
        k(   22) = (   0.0416667   0.4570690   0.0000000), wk =   0.0416667
        k(   23) = (   0.0416667   0.5051815   0.0000000), wk =   0.0416667
        k(   24) = (   0.0416667   0.5532940   0.0000000), wk =   0.0416667
        k(   25) = (   0.0833333   0.1443376   0.0000000), wk =   0.0208333
        k(   26) = (   0.0833333   0.1924501   0.0000000), wk =   0.0416667
        k(   27) = (   0.0833333   0.2405626   0.0000000), wk =   0.0416667
        k(   28) = (   0.0833333   0.2886751   0.0000000), wk =   0.0416667
        k(   29) = (   0.0833333   0.3367877   0.0000000), wk =   0.0416667
        k(   30) = (   0.0833333   0.3849002   0.0000000), wk =   0.0416667
        k(   31) = (   0.0833333   0.4330127   0.0000000), wk =   0.0416667
        k(   32) = (   0.0833333   0.4811252   0.0000000), wk =   0.0416667
        k(   33) = (   0.0833333   0.5292377   0.0000000), wk =   0.0416667
        k(   34) = (   0.0833333   0.5773503   0.0000000), wk =   0.0208333
        k(   35) = (   0.1250000   0.2165064   0.0000000), wk =   0.0208333
        k(   36) = (   0.1250000   0.2646189   0.0000000), wk =   0.0416667
        k(   37) = (   0.1250000   0.3127314   0.0000000), wk =   0.0416667
        k(   38) = (   0.1250000   0.3608439   0.0000000), wk =   0.0416667
        k(   39) = (   0.1250000   0.4089564   0.0000000), wk =   0.0416667
        k(   40) = (   0.1250000   0.4570690   0.0000000), wk =   0.0416667
        k(   41) = (   0.1250000   0.5051815   0.0000000), wk =   0.0416667
        k(   42) = (   0.1250000   0.5532940   0.0000000), wk =   0.0416667
        k(   43) = (   0.1666667   0.2886751   0.0000000), wk =   0.0208333
        k(   44) = (   0.1666667   0.3367877   0.0000000), wk =   0.0416667
        k(   45) = (   0.1666667   0.3849002   0.0000000), wk =   0.0416667
        k(   46) = (   0.1666667   0.4330127   0.0000000), wk =   0.0416667
        k(   47) = (   0.1666667   0.4811252   0.0000000), wk =   0.0416667
        k(   48) = (   0.1666667   0.5292377   0.0000000), wk =   0.0416667
        k(   49) = (   0.1666667   0.5773503   0.0000000), wk =   0.0208333
        k(   50) = (   0.2083333   0.3608439   0.0000000), wk =   0.0208333
        k(   51) = (   0.2083333   0.4089564   0.0000000), wk =   0.0416667
        k(   52) = (   0.2083333   0.4570690   0.0000000), wk =   0.0416667
        k(   53) = (   0.2083333   0.5051815   0.0000000), wk =   0.0416667
        k(   54) = (   0.2083333   0.5532940   0.0000000), wk =   0.0416667
        k(   55) = (   0.2500000   0.4330127   0.0000000), wk =   0.0208333
        k(   56) = (   0.2500000   0.4811252   0.0000000), wk =   0.0416667
        k(   57) = (   0.2500000   0.5292377   0.0000000), wk =   0.0416667
        k(   58) = (   0.2500000   0.5773503   0.0000000), wk =   0.0208333
        k(   59) = (   0.2916667   0.5051815   0.0000000), wk =   0.0208333
        k(   60) = (   0.2916667   0.5532940   0.0000000), wk =   0.0416667
        k(   61) = (   0.3333333   0.5773503   0.0000000), wk =   0.0069444

                       cryst. coord.
        k(    1) = (   0.0000000   0.0000000   0.0000000), wk =   0.0034722
        k(    2) = (   0.0000000   0.0416667   0.0000000), wk =   0.0208333
        k(    3) = (   0.0000000   0.0833333   0.0000000), wk =   0.0208333
        k(    4) = (   0.0000000   0.1250000   0.0000000), wk =   0.0208333
        k(    5) = (   0.0000000   0.1666667   0.0000000), wk =   0.0208333
        k(    6) = (   0.0000000   0.2083333   0.0000000), wk =   0.0208333
        k(    7) = (   0.0000000   0.2500000   0.0000000), wk =   0.0208333
        k(    8) = (   0.0000000   0.2916667   0.0000000), wk =   0.0208333
        k(    9) = (   0.0000000   0.3333333   0.0000000), wk =   0.0208333
        k(   10) = (   0.0000000   0.3750000   0.0000000), wk =   0.0208333
        k(   11) = (   0.0000000   0.4166667   0.0000000), wk =   0.0208333
        k(   12) = (   0.0000000   0.4583333   0.0000000), wk =   0.0208333
        k(   13) = (   0.0000000  -0.5000000   0.0000000), wk =   0.0104167
        k(   14) = (   0.0416667   0.0416667   0.0000000), wk =   0.0208333
        k(   15) = (   0.0416667   0.0833333   0.0000000), wk =   0.0416667
        k(   16) = (   0.0416667   0.1250000   0.0000000), wk =   0.0416667
        k(   17) = (   0.0416667   0.1666667   0.0000000), wk =   0.0416667
        k(   18) = (   0.0416667   0.2083333   0.0000000), wk =   0.0416667
        k(   19) = (   0.0416667   0.2500000   0.0000000), wk =   0.0416667
        k(   20) = (   0.0416667   0.2916667   0.0000000), wk =   0.0416667
        k(   21) = (   0.0416667   0.3333333   0.0000000), wk =   0.0416667
        k(   22) = (   0.0416667   0.3750000   0.0000000), wk =   0.0416667
        k(   23) = (   0.0416667   0.4166667   0.0000000), wk =   0.0416667
        k(   24) = (   0.0416667   0.4583333   0.0000000), wk =   0.0416667
        k(   25) = (   0.0833333   0.0833333   0.0000000), wk =   0.0208333
        k(   26) = (   0.0833333   0.1250000   0.0000000), wk =   0.0416667
        k(   27) = (   0.0833333   0.1666667   0.0000000), wk =   0.0416667
        k(   28) = (   0.0833333   0.2083333   0.0000000), wk =   0.0416667
        k(   29) = (   0.0833333   0.2500000   0.0000000), wk =   0.0416667
        k(   30) = (   0.0833333   0.2916667   0.0000000), wk =   0.0416667
        k(   31) = (   0.0833333   0.3333333   0.0000000), wk =   0.0416667
        k(   32) = (   0.0833333   0.3750000   0.0000000), wk =   0.0416667
        k(   33) = (   0.0833333   0.4166667   0.0000000), wk =   0.0416667
        k(   34) = (   0.0833333   0.4583333   0.0000000), wk =   0.0208333
        k(   35) = (   0.1250000   0.1250000   0.0000000), wk =   0.0208333
        k(   36) = (   0.1250000   0.1666667   0.0000000), wk =   0.0416667
        k(   37) = (   0.1250000   0.2083333   0.0000000), wk =   0.0416667
        k(   38) = (   0.1250000   0.2500000   0.0000000), wk =   0.0416667
        k(   39) = (   0.1250000   0.2916667   0.0000000), wk =   0.0416667
        k(   40) = (   0.1250000   0.3333333   0.0000000), wk =   0.0416667
        k(   41) = (   0.1250000   0.3750000   0.0000000), wk =   0.0416667
        k(   42) = (   0.1250000   0.4166667   0.0000000), wk =   0.0416667
        k(   43) = (   0.1666667   0.1666667   0.0000000), wk =   0.0208333
        k(   44) = (   0.1666667   0.2083333   0.0000000), wk =   0.0416667
        k(   45) = (   0.1666667   0.2500000   0.0000000), wk =   0.0416667
        k(   46) = (   0.1666667   0.2916667   0.0000000), wk =   0.0416667
        k(   47) = (   0.1666667   0.3333333   0.0000000), wk =   0.0416667
        k(   48) = (   0.1666667   0.3750000   0.0000000), wk =   0.0416667
        k(   49) = (   0.1666667   0.4166667   0.0000000), wk =   0.0208333
        k(   50) = (   0.2083333   0.2083333   0.0000000), wk =   0.0208333
        k(   51) = (   0.2083333   0.2500000   0.0000000), wk =   0.0416667
        k(   52) = (   0.2083333   0.2916667   0.0000000), wk =   0.0416667
        k(   53) = (   0.2083333   0.3333333   0.0000000), wk =   0.0416667
        k(   54) = (   0.2083333   0.3750000   0.0000000), wk =   0.0416667
        k(   55) = (   0.2500000   0.2500000   0.0000000), wk =   0.0208333
        k(   56) = (   0.2500000   0.2916667   0.0000000), wk =   0.0416667
        k(   57) = (   0.2500000   0.3333333   0.0000000), wk =   0.0416667
        k(   58) = (   0.2500000   0.3750000   0.0000000), wk =   0.0208333
        k(   59) = (   0.2916667   0.2916667   0.0000000), wk =   0.0208333
        k(   60) = (   0.2916667   0.3333333   0.0000000), wk =   0.0416667
        k(   61) = (   0.3333333   0.3333333   0.0000000), wk =   0.0069444

     Dense  grid:    56613 G-vectors     FFT dimensions: (  30,  30, 150)

     Dynamical RAM for                 wfc:       0.54 MB

     Dynamical RAM for     wfc (w. buffer):       0.54 MB

     Dynamical RAM for           str. fact:       0.22 MB

     Dynamical RAM for           local pot:       0.00 MB

     Dynamical RAM for          nlocal pot:       0.34 MB

     Dynamical RAM for                qrad:       1.78 MB

     Dynamical RAM for          rho,v,vnew:       0.72 MB

     Dynamical RAM for           G-vectors:       0.46 MB

     Dynamical RAM for          h,s,v(r/c):       0.29 MB

     Dynamical RAM for          <psi|beta>:       0.02 MB

     Dynamical RAM for                 psi:       2.15 MB

     Dynamical RAM for                hpsi:       2.15 MB

     Dynamical RAM for      wfcinit/wfcrot:       1.11 MB

     Estimated static dynamical RAM per process >       5.02 MB

     Estimated max dynamical RAM per process >       9.62 MB

     Estimated total dynamical RAM >     538.85 MB

     Check: negative core charge=   -0.000110

     The potential is recalculated from file :
     run_output/MoS2_2D.save/charge-density

     Starting wfcs are   28 randomized atomic wfcs +   12 random wfcs

     Band Structure Calculation
     Davidson diagonalization with overlap

     Computing kpt #:     1  of     9 on this pool
     total cpu time spent up to now is        1.2 secs

     Computing kpt #:     2  of     9 on this pool
     total cpu time spent up to now is        1.8 secs

     Computing kpt #:     3  of     9 on this pool
     total cpu time spent up to now is        2.4 secs

     Computing kpt #:     4  of     9 on this pool
     total cpu time spent up to now is        3.0 secs

     Computing kpt #:     5  of     9 on this pool
     total cpu time spent up to now is        3.6 secs

     Computing kpt #:     6  of     9 on this pool
     total cpu time spent up to now is        4.6 secs

     Computing kpt #:     7  of     9 on this pool
     total cpu time spent up to now is        5.1 secs

     Computing kpt #:     8  of     9 on this pool
     total cpu time spent up to now is        5.7 secs

     Computing kpt #:     9  of     9 on this pool
     total cpu time spent up to now is        6.3 secs

     ethr =  1.00E-06,  avg # of iterations = 16.4

     total cpu time spent up to now is        6.3 secs

     End of band structure calculation

          k = 0.0000 0.0000 0.0000 (  7087 PWs)   bands (ev):

   -60.0192 -34.5055 -34.1927 -34.1927 -13.9247 -12.5319  -5.4855  -2.2746
    -2.2746  -1.5382  -1.0815  -1.0815   0.2326   3.3519   3.3519   3.6428
     3.6428   5.1025   5.7742   6.6068   7.1171   8.6692   9.5871  10.4499
    11.2868  11.2868  13.3061  13.3061  13.4606  13.5350  15.4576  16.7035
    16.7035  16.7067  17.1168  17.1168  18.9773  19.6742  20.5814  21.2940

     occupation numbers 
     1.0000   1.0000   1.0000   1.0000   1.0000   1.0000   1.0000   1.0000
     1.0000   1.0000   1.0000   1.0000   1.0000   0.0000   0.0000   0.0000
     0.0000   0.0000   0.0000   0.0000   0.0000   0.0000   0.0000   0.0000
     0.0000   0.0000   0.0000   0.0000   0.0000   0.0000   0.0000   0.0000
     0.0000   0.0000   0.0000   0.0000   0.0000   0.0000   0.0000   0.0000

          k = 0.0000 0.0481 0.0000 (  7065 PWs)   bands (ev):

   -60.0169 -34.5037 -34.2008 -34.1943 -13.8959 -12.5204  -5.4529  -2.3382
    -2.2439  -1.7070  -1.1285  -0.9516   0.2259   3.3030   3.4038   3.5450
     3.6082   5.1442   5.8102   6.6958   7.2070   8.7012   9.7194  10.4574
    11.2331  11.3772  13.0499  13.3132  13.4679  13.5749  15.4575  16.4861
    16.7569  17.0179  17.0188  17.1097  19.0794  19.7680  20.8174  21.2834

     occupation numbers 
     1.0000   1.0000   1.0000   1.0000   1.0000   1.0000   1.0000   1.0000
     1.0000   1.0000   1.0000   1.0000   1.0000   0.0000   0.0000   0.0000
     0.0000   0.0000   0.0000   0.0000   0.0000   0.0000   0.0000   0.0000
     0.0000   0.0000   0.0000   0.0000   0.0000   0.0000   0.0000   0.0000
     0.0000   0.0000   0.0000   0.0000   0.0000   0.0000   0.0000   0.0000

          k = 0.0000 0.0962 0.0000 (  7065 PWs)   bands (ev):

   -60.0143 -34.4986 -34.2260 -34.2000 -13.8107 -12.4862  -5.3588  -2.5153
    -2.1535  -2.0138  -1.2601  -0.7712   0.1990   3.1932   3.3000   3.5117
     3.5476   5.2614   5.9173   6.8920   7.5072   8.7947  10.0724  10.4489
    11.1340  11.6399  12.5000  13.3415  13.4413  13.6568  15.4526  16.0206
    16.7397  16.9078  17.1054  17.7439  19.3790  19.9698  21.2429  21.4358

     occupation numbers 
     1.0000   1.0000   1.0000   1.0000   1.0000   1.0000   1.0000   1.0000
     1.0000   1.0000   1.0000   1.0000   1.0000   0.0000   0.0000   0.0000
     0.0000   0.0000   0.0000   0.0000   0.0000   0.0000   0.0000   0.0000
     0.0000   0.0000   0.0000   0.0000   0.0000   0.0000   0.0000   0.0000
     0.0000   0.0000   0.0000   0.0000   0.0000   0.0000   0.0000   0.0000

          k = 0.0000 0.1443 0.0000 (  7047 PWs)   bands (ev):

   -60.0088 -34.4905 -34.2653 -34.2086 -13.6721 -12.4307  -5.2150  -2.7700
    -2.3508  -2.0080  -1.4524  -0.6694   0.1322   3.0047   3.1049   3.3715
     3.7545   5.4451   6.0931   7.1081   8.0131   8.9418  10.3622  10.4956
    11.1105  11.9606  12.0531  13.3048  13.4110  13.7514  15.4166  15.5400
    16.3282  17.1326  17.1587  18.6350  19.8354  20.2448  20.8402  21.3225

     occupation numbers 
     1.0000   1.0000   1.0000   1.0000   1.0000   1.0000   1.0000   1.0000
     1.0000   1.0000   1.0000   1.0000   1.0000   0.0000   0.0000   0.0000
     0.0000   0.0000   0.0000   0.0000   0.0000   0.0000   0.0000   0.0000
     0.0000   0.0000   0.0000   0.0000   0.0000   0.0000   0.0000   0.0000
     0.0000   0.0000   0.0000   0.0000   0.0000   0.0000   0.0000   0.0000

          k = 0.0000 0.1925 0.0000 (  7045 PWs)   bands (ev):

   -60.0032 -34.4801 -34.3163 -34.2203 -13.4858 -12.3562  -5.0464  -3.0541
    -2.6973  -1.8155  -1.6784  -0.6790   0.0012   2.7513   3.1095   3.2114
     3.9902   5.6927   6.3339   7.3376   8.6038   9.1207  10.2348  10.5782
    11.1794  11.8685  12.5816  13.0652  13.5443  13.7874  15.2459  15.3059
    15.8373  17.3226  17.3997  19.4790  19.4921  19.8980  20.4034  20.8045

     occupation numbers 
     1.0000   1.0000   1.0000   1.0000   1.0000   1.0000   1.0000   1.0000
     1.0000   1.0000   1.0000   1.0000   1.0000   0.0000   0.0000   0.0000
     0.0000   0.0000   0.0000   0.0000   0.0000   0.0000   0.0000   0.0000
     0.0000   0.0000   0.0000   0.0000   0.0000   0.0000   0.0000   0.0000
     0.0000   0.0000   0.0000   0.0000   0.0000   0.0000   0.0000   0.0000

          k = 0.0000 0.2406 0.0000 (  7035 PWs)   bands (ev):

   -59.9961 -34.4683 -34.3748 -34.2337 -13.2593 -12.2660  -4.9000  -3.3103
    -3.0457  -1.9147  -1.5880  -0.7874  -0.2002   2.6025   3.0548   3.2284
     4.2247   6.0033   6.6332   7.5837   9.0570   9.2605  10.1969  10.2715
    11.2988  12.2380  12.8398  13.1642  13.7543  13.7601  15.1172  15.2792
    15.3387  17.5722  17.6780  18.1652  18.6453  19.8758  20.1525  20.8101

     occupation numbers 
     1.0000   1.0000   1.0000   1.0000   1.0000   1.0000   1.0000   1.0000
     1.0000   1.0000   1.0000   1.0000   1.0000   0.0000   0.0000   0.0000
     0.0000   0.0000   0.0000   0.0000   0.0000   0.0000   0.0000   0.0000
     0.0000   0.0000   0.0000   0.0000   0.0000   0.0000   0.0000   0.0000
     0.0000   0.0000   0.0000   0.0000   0.0000   0.0000   0.0000   0.0000

          k = 0.0000 0.2887 0.0000 (  7009 PWs)   bands (ev):

   -59.9875 -34.4552 -34.4369 -34.2480 -13.0029 -12.1648  -4.8470  -3.4768
    -3.3901  -2.1439  -1.3414  -0.9522  -0.4330   2.5746   2.9224   3.4355
     4.4362   6.3745   6.9796   7.8378   9.1473   9.1805  10.1617  10.2209
    11.5624  12.4176  12.7749  13.6148  13.9373  14.0654  14.9198  15.0223
    15.5789  16.8260  17.4855  17.9158  17.9402  18.7737  19.8771  20.6367

     occupation numbers 
     1.0000   1.0000   1.0000   1.0000   1.0000   1.0000   1.0000   1.0000
     1.0000   1.0000   1.0000   1.0000   1.0000   0.0000   0.0000   0.0000
     0.0000   0.0000   0.0000   0.0000   0.0000   0.0000   0.0000   0.0000
     0.0000   0.0000   0.0000   0.0000   0.0000   0.0000   0.0000   0.0000
     0.0000   0.0000   0.0000   0.0000   0.0000   0.0000   0.0000   0.0000

          k = 0.0000 0.3368 0.0000 (  7022 PWs)   bands (ev):

   -59.9814 -34.4993 -34.4422 -34.2626 -12.7297 -12.0582  -4.9324  -3.7213
    -3.5397  -2.3533  -1.1288  -1.0950  -0.6199   2.6467   2.8298   3.6839
     4.6121   6.7993   7.3497   8.0833   8.9216   8.9289  10.1737  10.3230
    11.9090  12.2872  12.9508  13.5224  14.4000  14.4530  14.8365  15.2982
    15.6292  15.9161  16.5686  17.5567  18.1670  18.3955  18.9530  20.9092

     occupation numbers 
     1.0000   1.0000   1.0000   1.0000   1.0000   1.0000   1.0000   1.0000
     1.0000   1.0000   1.0000   1.0000   1.0000   0.0000   0.0000   0.0000
     0.0000   0.0000   0.0000   0.0000   0.0000   0.0000   0.0000   0.0000
     0.0000   0.0000   0.0000   0.0000   0.0000   0.0000   0.0000   0.0000
     0.0000   0.0000   0.0000   0.0000   0.0000   0.0000   0.0000   0.0000

          k = 0.0000 0.3849 0.0000 (  7036 PWs)   bands (ev):

   -59.9758 -34.5572 -34.4302 -34.2759 -12.4562 -11.9534  -5.1135  -4.0262
    -3.5743  -2.5339  -1.2869  -0.8697  -0.6863   2.7858   2.7868   3.9263
     4.7482   7.2563   7.6889   8.2371   8.5596   8.7755  10.2197  10.5082
    11.9679  12.1267  13.0791  13.3479  14.4703  14.6875  14.8989  15.0448
    15.5519  15.9704  16.6942  16.7463  18.2012  18.3514  18.6474  20.2806

     occupation numbers 
     1.0000   1.0000   1.0000   1.0000   1.0000   1.0000   1.0000   1.0000
     1.0000   1.0000   1.0000   1.0000   1.0000   0.0000   0.0000   0.0000
     0.0000   0.0000   0.0000   0.0000   0.0000   0.0000   0.0000   0.0000
     0.0000   0.0000   0.0000   0.0000   0.0000   0.0000   0.0000   0.0000
     0.0000   0.0000   0.0000   0.0000   0.0000   0.0000   0.0000   0.0000

          k = 0.0000 0.4330 0.0000 (  7046 PWs)   bands (ev):

   -59.9709 -34.6063 -34.4201 -34.2873 -12.2032 -11.8587  -5.3196  -4.2884
    -3.6456  -2.6796  -1.4120  -0.6838  -0.6156   2.7878   2.9654   4.1246
     4.8461   7.5663   7.9128   7.9703   8.7086   8.8641  10.3632  10.5748
    11.8159  12.0978  12.6057  13.2145  14.0069  14.1826  15.1013  15.3594
    15.5987  16.3037  16.7021  17.1316  17.8879  18.4963  18.7731  19.7807

     occupation numbers 
     1.0000   1.0000   1.0000   1.0000   1.0000   1.0000   1.0000   1.0000
     1.0000   1.0000   1.0000   1.0000   1.0000   0.0000   0.0000   0.0000
     0.0000   0.0000   0.0000   0.0000   0.0000   0.0000   0.0000   0.0000
     0.0000   0.0000   0.0000   0.0000   0.0000   0.0000   0.0000   0.0000
     0.0000   0.0000   0.0000   0.0000   0.0000   0.0000   0.0000   0.0000

          k = 0.0000 0.4811 0.0000 (  7054 PWs)   bands (ev):

   -59.9671 -34.6440 -34.4121 -34.2959 -11.9948 -11.7826  -5.5011  -4.4912
    -3.7437  -2.7864  -1.4999  -0.5489  -0.4656   2.8202   3.1532   4.2585
     4.9106   7.1602   8.0413   8.2603   9.1019   9.1196  10.4275  10.5507
    11.7460  12.1351  12.2100  12.3466  13.5917  13.9585  15.0262  15.5699
    15.7715  16.5092  17.2736  17.3475  18.1874  18.6091  18.7198  19.6135

     occupation numbers 
     1.0000   1.0000   1.0000   1.0000   1.0000   1.0000   1.0000   1.0000
     1.0000   1.0000   1.0000   1.0000   1.0000   0.0000   0.0000   0.0000
     0.0000   0.0000   0.0000   0.0000   0.0000   0.0000   0.0000   0.0000
     0.0000   0.0000   0.0000   0.0000   0.0000   0.0000   0.0000   0.0000
     0.0000   0.0000   0.0000   0.0000   0.0000   0.0000   0.0000   0.0000

          k = 0.0000 0.5292 0.0000 (  7052 PWs)   bands (ev):

   -59.9643 -34.6674 -34.4069 -34.3013 -11.8561 -11.7331  -5.6250  -4.6196
    -3.8250  -2.8514  -1.5514  -0.4687  -0.3262   2.8568   3.3083   4.3296
     4.9468   6.7595   8.1452   8.5609   9.3140   9.6237  10.3399  10.5996
    11.3471  11.9483  12.0010  12.1410  13.3371  13.4362  15.3515  15.3592
    16.0610  16.5101  17.4604  17.7898  18.4830  18.6893  18.8334  19.5950

     occupation numbers 
     1.0000   1.0000   1.0000   1.0000   1.0000   1.0000   1.0000   1.0000
     1.0000   1.0000   1.0000   1.0000   1.0000   0.0000   0.0000   0.0000
     0.0000   0.0000   0.0000   0.0000   0.0000   0.0000   0.0000   0.0000
     0.0000   0.0000   0.0000   0.0000   0.0000   0.0000   0.0000   0.0000
     0.0000   0.0000   0.0000   0.0000   0.0000   0.0000   0.0000   0.0000

          k = 0.0000-0.5774 0.0000 (  7056 PWs)   bands (ev):

   -59.9637 -34.6752 -34.4052 -34.3034 -11.8072 -11.7159  -5.6690  -4.6636
    -3.8559  -2.8733  -1.5682  -0.4424  -0.2705   2.8725   3.3715   4.3510
     4.9584   6.6054   8.1931   8.6824   9.3634   9.9332  10.4395  10.6847
    10.7680  11.8477  11.8567  12.4117  13.0454  13.3193  15.2358  15.6153
    16.1655  16.3532  17.5463  17.9450  18.5779  18.7201  18.9723  19.5900

     occupation numbers 
     1.0000   1.0000   1.0000   1.0000   1.0000   1.0000   1.0000   1.0000
     1.0000   1.0000   1.0000   1.0000   1.0000   0.0000   0.0000   0.0000
     0.0000   0.0000   0.0000   0.0000   0.0000   0.0000   0.0000   0.0000
     0.0000   0.0000   0.0000   0.0000   0.0000   0.0000   0.0000   0.0000
     0.0000   0.0000   0.0000   0.0000   0.0000   0.0000   0.0000   0.0000

          k = 0.0417 0.0722 0.0000 (  7059 PWs)   bands (ev):

   -60.0148 -34.5002 -34.2175 -34.1982 -13.8389 -12.4975  -5.3895  -2.4582
    -2.1837  -1.9245  -1.2279  -0.8062   0.2092   3.2194   3.3769   3.5056
     3.5400   5.2234   5.8818   6.8364   7.4043   8.7641   9.9628  10.4590
    11.1565  11.5508  12.6642  13.3117  13.4591  13.6401  15.4566  16.2012
    16.7952  16.8029  17.1291  17.5467  19.2811  19.9098  21.2464  21.2588

     occupation numbers 
     1.0000   1.0000   1.0000   1.0000   1.0000   1.0000   1.0000   1.0000
     1.0000   1.0000   1.0000   1.0000   1.0000   0.0000   0.0000   0.0000
     0.0000   0.0000   0.0000   0.0000   0.0000   0.0000   0.0000   0.0000
     0.0000   0.0000   0.0000   0.0000   0.0000   0.0000   0.0000   0.0000
     0.0000   0.0000   0.0000   0.0000   0.0000   0.0000   0.0000   0.0000

          k = 0.0417 0.1203 0.0000 (  7056 PWs)   bands (ev):

   -60.0111 -34.4936 -34.2493 -34.2059 -13.7270 -12.4526  -5.2700  -2.6729
    -2.2195  -2.0669  -1.4137  -0.6650   0.1625   3.1101   3.1135   3.4165
     3.6896   5.3731   6.0235   7.0341   7.8189   8.8853  10.3655  10.4138
    11.0981  11.8724  12.1290  13.3090  13.3851  13.7577  15.4426  15.7889
    16.4110  16.9493  17.1975  18.3382  19.6643  20.1465  21.1499  21.8342

     occupation numbers 
     1.0000   1.0000   1.0000   1.0000   1.0000   1.0000   1.0000   1.0000
     1.0000   1.0000   1.0000   1.0000   1.0000   0.0000   0.0000   0.0000
     0.0000   0.0000   0.0000   0.0000   0.0000   0.0000   0.0000   0.0000
     0.0000   0.0000   0.0000   0.0000   0.0000   0.0000   0.0000   0.0000
     0.0000   0.0000   0.0000   0.0000   0.0000   0.0000   0.0000   0.0000

          k = 0.0417 0.1684 0.0000 (  7052 PWs)   bands (ev):

   -60.0059 -34.4845 -34.2942 -34.2165 -13.5645 -12.3876  -5.1119  -2.9405
    -2.5401  -1.9008  -1.6499  -0.6077   0.0636   2.8434   3.0566   3.2641
     3.9198   5.5884   6.2323   7.2530   8.3877   9.0525  10.2938  10.6721
    11.1343  11.7708  12.2916  13.2341  13.3196  13.9006  15.3496  15.4368
    15.9563  17.1913  17.3370  19.1850  20.0840  20.3092  20.3756  20.8133

     occupation numbers 
     1.0000   1.0000   1.0000   1.0000   1.0000   1.0000   1.0000   1.0000
     1.0000   1.0000   1.0000   1.0000   1.0000   0.0000   0.0000   0.0000
     0.0000   0.0000   0.0000   0.0000   0.0000   0.0000   0.0000   0.0000
     0.0000   0.0000   0.0000   0.0000   0.0000   0.0000   0.0000   0.0000
     0.0000   0.0000   0.0000   0.0000   0.0000   0.0000   0.0000   0.0000

          k = 0.0417 0.2165 0.0000 (  7046 PWs)   bands (ev):

   -59.9996 -34.4735 -34.3484 -34.2295 -13.3580 -12.3051  -4.9497  -3.2086
    -2.8731  -1.9026  -1.6974  -0.6558  -0.1042   2.6416   3.1096   3.1107
     4.1616   5.8677   6.5033   7.4934   8.9525   9.2301  10.1889  10.4720
    11.2299  12.0028  12.6296  13.2019  13.3259  14.0559  15.0583  15.3143
    15.5968  17.4625  17.5643  18.8417  19.2973  19.9185  20.4105  20.8029

     occupation numbers 
     1.0000   1.0000   1.0000   1.0000   1.0000   1.0000   1.0000   1.0000
     1.0000   1.0000   1.0000   1.0000   1.0000   0.0000   0.0000   0.0000
     0.0000   0.0000   0.0000   0.0000   0.0000   0.0000   0.0000   0.0000
     0.0000   0.0000   0.0000   0.0000   0.0000   0.0000   0.0000   0.0000
     0.0000   0.0000   0.0000   0.0000   0.0000   0.0000   0.0000   0.0000

          k = 0.0417 0.2646 0.0000 (  7025 PWs)   bands (ev):

   -59.9915 -34.4609 -34.4081 -34.2439 -13.1162 -12.2091  -4.8441  -3.4155
    -3.2134  -2.1446  -1.4747  -0.7884  -0.3225   2.5458   2.9826   3.2684
     4.3878   6.2094   6.8283   7.7504   9.2341   9.2967  10.1989  10.2130
    11.3968  12.3568  12.6627  13.3871  13.5261  14.2859  14.6831  15.3735
    15.4761  17.4718  17.6724  17.9091  18.1604  19.3281  20.3673  20.4738

     occupation numbers 
     1.0000   1.0000   1.0000   1.0000   1.0000   1.0000   1.0000   1.0000
     1.0000   1.0000   1.0000   1.0000   1.0000   0.0000   0.0000   0.0000
     0.0000   0.0000   0.0000   0.0000   0.0000   0.0000   0.0000   0.0000
     0.0000   0.0000   0.0000   0.0000   0.0000   0.0000   0.0000   0.0000
     0.0000   0.0000   0.0000   0.0000   0.0000   0.0000   0.0000   0.0000

          k = 0.0417 0.3127 0.0000 (  7013 PWs)   bands (ev):

   -59.9839 -34.4697 -34.4479 -34.2588 -12.8508 -12.1047  -4.8627  -3.5532
    -3.5144  -2.3584  -1.2604  -0.9637  -0.5220   2.5478   2.9029   3.4966
     4.5794   6.6094   7.1918   8.0110   9.1146   9.1232  10.2231  10.2436
    11.7437  12.3722  12.7430  13.5617  13.7166  14.6413  14.6482  15.3491
    15.8143  16.2490  16.9587  18.0093  18.0182  18.4294  19.4985  20.3280

     occupation numbers 
     1.0000   1.0000   1.0000   1.0000   1.0000   1.0000   1.0000   1.0000
     1.0000   1.0000   1.0000   1.0000   1.0000   0.0000   0.0000   0.0000
     0.0000   0.0000   0.0000   0.0000   0.0000   0.0000   0.0000   0.0000
     0.0000   0.0000   0.0000   0.0000   0.0000   0.0000   0.0000   0.0000
     0.0000   0.0000   0.0000   0.0000   0.0000   0.0000   0.0000   0.0000

          k = 0.0417 0.3608 0.0000 (  7032 PWs)   bands (ev):

   -59.9783 -34.5293 -34.4355 -34.2733 -12.5767 -11.9983  -5.0044  -3.8787
    -3.5430  -2.5359  -1.1435  -1.0919  -0.6034   2.6120   2.8917   3.7488
     4.7248   7.0564   7.5610   8.2516   8.7556   8.8974  10.2235  10.4396
    11.9782  12.2110  12.9138  13.3393  14.1732  14.8107  15.0397  15.0860
    15.7928  15.7998  16.5068  17.1484  18.0956  18.6144  18.7963  19.9678

     occupation numbers 
     1.0000   1.0000   1.0000   1.0000   1.0000   1.0000   1.0000   1.0000
     1.0000   1.0000   1.0000   1.0000   1.0000   0.0000   0.0000   0.0000
     0.0000   0.0000   0.0000   0.0000   0.0000   0.0000   0.0000   0.0000
     0.0000   0.0000   0.0000   0.0000   0.0000   0.0000   0.0000   0.0000
     0.0000   0.0000   0.0000   0.0000   0.0000   0.0000   0.0000   0.0000

          k = 0.0417 0.4090 0.0000 (  7038 PWs)   bands (ev):

   -59.9727 -34.5822 -34.4242 -34.2863 -12.3121 -11.8977  -5.2018  -4.1717
    -3.5894  -2.6753  -1.3025  -0.9691  -0.5327   2.6971   2.9618   3.9856
     4.8182   7.5012   7.8698   8.1451   8.6184   8.8563  10.3360  10.5771
    11.8743  12.1137  12.6558  13.5010  14.1126  14.3802  15.0450  15.1115
    15.6630  16.1653  16.6820  16.8817  17.7933  18.7030  18.8065  19.7207

     occupation numbers 
     1.0000   1.0000   1.0000   1.0000   1.0000   1.0000   1.0000   1.0000
     1.0000   1.0000   1.0000   1.0000   1.0000   0.0000   0.0000   0.0000
     0.0000   0.0000   0.0000   0.0000   0.0000   0.0000   0.0000   0.0000
     0.0000   0.0000   0.0000   0.0000   0.0000   0.0000   0.0000   0.0000
     0.0000   0.0000   0.0000   0.0000   0.0000   0.0000   0.0000   0.0000

          k = 0.0417 0.4571 0.0000 (  7042 PWs)   bands (ev):

   -59.9681 -34.6251 -34.4151 -34.2967 -12.0797 -11.8113  -5.3956  -4.4130
    -3.6794  -2.7777  -1.4272  -0.8428  -0.3932   2.7768   3.0992   4.1799
     4.8606   7.4280   8.0704   8.1309   8.9349   9.0383  10.4651  10.5848
    11.6912  12.1399  12.2903  12.8259  13.8685  14.0762  15.0810  15.2359
    15.8702  16.2219  17.1455  17.2155  17.6598  18.7538  18.9068  19.5621

     occupation numbers 
     1.0000   1.0000   1.0000   1.0000   1.0000   1.0000   1.0000   1.0000
     1.0000   1.0000   1.0000   1.0000   1.0000   0.0000   0.0000   0.0000
     0.0000   0.0000   0.0000   0.0000   0.0000   0.0000   0.0000   0.0000
     0.0000   0.0000   0.0000   0.0000   0.0000   0.0000   0.0000   0.0000
     0.0000   0.0000   0.0000   0.0000   0.0000   0.0000   0.0000   0.0000

          k = 0.0417 0.5052 0.0000 (  7051 PWs)   bands (ev):

   -59.9651 -34.6553 -34.4086 -34.3042 -11.9044 -11.7477  -5.5476  -4.5850
    -3.7762  -2.8449  -1.5118  -0.7297  -0.2540   2.8392   3.2578   4.3173
     4.8650   6.9641   8.2206   8.4956   9.2695   9.3988  10.4243  10.5791
    11.6376  11.8311  12.1119  12.2380  13.4360  13.7614  15.2078  15.3442
    15.9241  16.4913  17.3438  17.6225  17.8636  18.7525  19.0210  19.3646

     occupation numbers 
     1.0000   1.0000   1.0000   1.0000   1.0000   1.0000   1.0000   1.0000
     1.0000   1.0000   1.0000   1.0000   1.0000   0.0000   0.0000   0.0000
     0.0000   0.0000   0.0000   0.0000   0.0000   0.0000   0.0000   0.0000
     0.0000   0.0000   0.0000   0.0000   0.0000   0.0000   0.0000   0.0000
     0.0000   0.0000   0.0000   0.0000   0.0000   0.0000   0.0000   0.0000

          k = 0.0417 0.5533 0.0000 (  7038 PWs)   bands (ev):

   -59.9625 -34.6706 -34.4050 -34.3079 -11.8095 -11.7138  -5.6311  -4.6746
    -3.8364  -2.8781  -1.5542  -0.6672  -0.1643   2.8736   3.3699   4.3898
     4.8556   6.6725   8.3304   8.7370   9.3677   9.8915  10.3728  10.6775
    10.9984  11.6957  11.9165  12.3797  13.2402  13.3311  15.2617  15.5435
    15.9762  16.4338  17.5209  17.8016  18.0895  18.9193  18.9776  19.2825

     occupation numbers 
     1.0000   1.0000   1.0000   1.0000   1.0000   1.0000   1.0000   1.0000
     1.0000   1.0000   1.0000   1.0000   1.0000   0.0000   0.0000   0.0000
     0.0000   0.0000   0.0000   0.0000   0.0000   0.0000   0.0000   0.0000
     0.0000   0.0000   0.0000   0.0000   0.0000   0.0000   0.0000   0.0000
     0.0000   0.0000   0.0000   0.0000   0.0000   0.0000   0.0000   0.0000

          k = 0.0833 0.1443 0.0000 (  7059 PWs)   bands (ev):

   -60.0072 -34.4863 -34.2861 -34.2157 -13.5911 -12.3982  -5.1348  -2.8984
    -2.4697  -1.9320  -1.6764  -0.5582   0.0839   2.8834   3.0218   3.2744
     3.9078   5.5539   6.1986   7.2278   8.3145   9.0295  10.3290  10.7100
    11.1103  11.7389  12.1688  13.2070  13.3145  13.9399  15.3675  15.6097
    15.9381  17.0304  17.4005  19.0830  20.0908  20.4386  20.7899  21.0792

     occupation numbers 
     1.0000   1.0000   1.0000   1.0000   1.0000   1.0000   1.0000   1.0000
     1.0000   1.0000   1.0000   1.0000   1.0000   0.0000   0.0000   0.0000
     0.0000   0.0000   0.0000   0.0000   0.0000   0.0000   0.0000   0.0000
     0.0000   0.0000   0.0000   0.0000   0.0000   0.0000   0.0000   0.0000
     0.0000   0.0000   0.0000   0.0000   0.0000   0.0000   0.0000   0.0000

          k = 0.0833 0.1925 0.0000 (  7055 PWs)   bands (ev):

   -60.0016 -34.4762 -34.3332 -34.2289 -13.4082 -12.3250  -4.9778  -3.1467
    -2.7419  -1.9834  -1.7625  -0.5224  -0.0531   2.6694   3.0001   3.1286
     4.1560   5.8008   6.4390   7.4581   8.9121   9.2099  10.1993  10.7083
    11.1851  11.7352  12.3863  13.1035  13.3599  14.1710  14.9754  15.5096
    15.6809  17.2164  17.6652  19.5840  19.7530  20.0250  20.3518  20.6574

     occupation numbers 
     1.0000   1.0000   1.0000   1.0000   1.0000   1.0000   1.0000   1.0000
     1.0000   1.0000   1.0000   1.0000   1.0000   0.0000   0.0000   0.0000
     0.0000   0.0000   0.0000   0.0000   0.0000   0.0000   0.0000   0.0000
     0.0000   0.0000   0.0000   0.0000   0.0000   0.0000   0.0000   0.0000
     0.0000   0.0000   0.0000   0.0000   0.0000   0.0000   0.0000   0.0000

          k = 0.0833 0.2406 0.0000 (  7034 PWs)   bands (ev):

   -59.9940 -34.4645 -34.3872 -34.2441 -13.1860 -12.2362  -4.8458  -3.3610
    -3.0406  -2.2749  -1.5810  -0.5822  -0.2424   2.5180   3.0178   3.0813
     4.3971   6.1119   6.7383   7.7169   9.3718   9.4014  10.1363  10.3800
    11.2900  12.1096  12.4406  13.0361  13.5856  14.4473  14.4588  15.5507
    15.5940  17.4344  17.9557  18.2640  18.8381  19.8201  20.0035  20.2563

     occupation numbers 
     1.0000   1.0000   1.0000   1.0000   1.0000   1.0000   1.0000   1.0000
     1.0000   1.0000   1.0000   1.0000   1.0000   0.0000   0.0000   0.0000
     0.0000   0.0000   0.0000   0.0000   0.0000   0.0000   0.0000   0.0000
     0.0000   0.0000   0.0000   0.0000   0.0000   0.0000   0.0000   0.0000
     0.0000   0.0000   0.0000   0.0000   0.0000   0.0000   0.0000   0.0000

          k = 0.0833 0.2887 0.0000 (  7037 PWs)   bands (ev):

   -59.9875 -34.4522 -34.4450 -34.2607 -12.9347 -12.1364  -4.8075  -3.4814
    -3.3711  -2.5089  -1.4252  -0.7217  -0.4293   2.4491   2.9652   3.2560
     4.6052   6.4845   7.0860   7.9929   9.3604   9.4068  10.2372  10.2755
    11.5156  12.3580  12.5041  13.1376  13.4438  14.4503  14.7787  15.5810
    15.7334  16.9467  17.3642  18.0250  18.3038  18.8381  19.4288  19.9314

     occupation numbers 
     1.0000   1.0000   1.0000   1.0000   1.0000   1.0000   1.0000   1.0000
     1.0000   1.0000   1.0000   1.0000   1.0000   0.0000   0.0000   0.0000
     0.0000   0.0000   0.0000   0.0000   0.0000   0.0000   0.0000   0.0000
     0.0000   0.0000   0.0000   0.0000   0.0000   0.0000   0.0000   0.0000
     0.0000   0.0000   0.0000   0.0000   0.0000   0.0000   0.0000   0.0000

          k = 0.0833 0.3368 0.0000 (  7030 PWs)   bands (ev):

   -59.9804 -34.5023 -34.4396 -34.2770 -12.6670 -12.0311  -4.8962  -3.7175
    -3.5052  -2.6750  -1.3376  -0.9054  -0.5193   2.4621   2.9737   3.4880
     4.7620   6.9121   7.4632   8.2707   9.0681   9.1699  10.3406  10.3781
    11.8657  12.3157  12.5959  13.1353  13.5048  14.7086  15.1474  15.6265
    15.9081  15.9436  16.5953  17.7208  18.0530  18.6834  19.0675  19.3738

     occupation numbers 
     1.0000   1.0000   1.0000   1.0000   1.0000   1.0000   1.0000   1.0000
     1.0000   1.0000   1.0000   1.0000   1.0000   0.0000   0.0000   0.0000
     0.0000   0.0000   0.0000   0.0000   0.0000   0.0000   0.0000   0.0000
     0.0000   0.0000   0.0000   0.0000   0.0000   0.0000   0.0000   0.0000
     0.0000   0.0000   0.0000   0.0000   0.0000   0.0000   0.0000   0.0000

          k = 0.0833 0.3849 0.0000 (  7035 PWs)   bands (ev):

   -59.9744 -34.5557 -34.4279 -34.2922 -12.3997 -11.9273  -5.0654  -4.0497
    -3.5180  -2.7832  -1.2962  -1.0990  -0.4755   2.5471   3.0299   3.7385
     4.8538   7.3740   7.8342   8.4450   8.6672   9.0468  10.4174  10.5674
    11.8564  12.2063  12.4785  13.3786  13.9209  14.5858  14.9639  15.2693
    15.6892  16.2332  16.4478  16.9788  17.9954  18.6064  18.9956  19.1161

     occupation numbers 
     1.0000   1.0000   1.0000   1.0000   1.0000   1.0000   1.0000   1.0000
     1.0000   1.0000   1.0000   1.0000   1.0000   0.0000   0.0000   0.0000
     0.0000   0.0000   0.0000   0.0000   0.0000   0.0000   0.0000   0.0000
     0.0000   0.0000   0.0000   0.0000   0.0000   0.0000   0.0000   0.0000
     0.0000   0.0000   0.0000   0.0000   0.0000   0.0000   0.0000   0.0000

          k = 0.0833 0.4330 0.0000 (  7036 PWs)   bands (ev):

   -59.9691 -34.6013 -34.4178 -34.3052 -12.1528 -11.8332  -5.2519  -4.3389
    -3.5852  -2.8477  -1.2763  -1.2274  -0.3562   2.6767   3.1202   3.9796
     4.8730   7.6683   8.1345   8.1504   8.9016   9.1115  10.5621  10.6526
    11.5413  12.1764  12.3095  13.3209  14.0435  14.0576  14.8502  15.2468
    15.9025  15.9230  16.6373  17.2694  17.6693  18.3544  19.0533  19.1313

     occupation numbers 
     1.0000   1.0000   1.0000   1.0000   1.0000   1.0000   1.0000   1.0000
     1.0000   1.0000   1.0000   1.0000   1.0000   0.0000   0.0000   0.0000
     0.0000   0.0000   0.0000   0.0000   0.0000   0.0000   0.0000   0.0000
     0.0000   0.0000   0.0000   0.0000   0.0000   0.0000   0.0000   0.0000
     0.0000   0.0000   0.0000   0.0000   0.0000   0.0000   0.0000   0.0000

          k = 0.0833 0.4811 0.0000 (  7050 PWs)   bands (ev):

   -59.9659 -34.6361 -34.4102 -34.3154 -11.9501 -11.7575  -5.4136  -4.5626
    -3.6895  -2.8812  -1.4182  -1.1337  -0.2151   2.7959   3.2438   4.1968
     4.8229   7.2581   8.4092   8.4769   9.2913   9.3055  10.5981  10.6372
    11.3314  12.0829  12.1929  12.5426  13.6645  14.0266  14.9417  15.2088
    15.9634  16.1536  16.8537  17.5279  17.6722  18.1636  18.9260  19.0466

     occupation numbers 
     1.0000   1.0000   1.0000   1.0000   1.0000   1.0000   1.0000   1.0000
     1.0000   1.0000   1.0000   1.0000   1.0000   0.0000   0.0000   0.0000
     0.0000   0.0000   0.0000   0.0000   0.0000   0.0000   0.0000   0.0000
     0.0000   0.0000   0.0000   0.0000   0.0000   0.0000   0.0000   0.0000
     0.0000   0.0000   0.0000   0.0000   0.0000   0.0000   0.0000   0.0000

          k = 0.0833 0.5292 0.0000 (  7050 PWs)   bands (ev):

   -59.9633 -34.6579 -34.4051 -34.3217 -11.8155 -11.7081  -5.5231  -4.7038
    -3.7781  -2.8954  -1.5101  -1.0609  -0.0958   2.8605   3.3766   4.3851
     4.7214   6.8619   8.6381   8.8546   9.4177   9.7969  10.4181  10.6840
    11.2539  11.5216  12.0731  12.3885  13.4005  13.6001  15.1119  15.4015
    15.7671  16.4656  17.1613  17.5838  17.6775  18.1216  18.9307  19.0509

     occupation numbers 
     1.0000   1.0000   1.0000   1.0000   1.0000   1.0000   1.0000   1.0000
     1.0000   1.0000   1.0000   1.0000   1.0000   0.0000   0.0000   0.0000
     0.0000   0.0000   0.0000   0.0000   0.0000   0.0000   0.0000   0.0000
     0.0000   0.0000   0.0000   0.0000   0.0000   0.0000   0.0000   0.0000
     0.0000   0.0000   0.0000   0.0000   0.0000   0.0000   0.0000   0.0000

          k = 0.0833 0.5774 0.0000 (  7044 PWs)   bands (ev):

   -59.9620 -34.6650 -34.4033 -34.3240 -11.7682 -11.6910  -5.5618  -4.7521
    -3.8120  -2.8989  -1.5420  -1.0349  -0.0478   2.8777   3.4377   4.5060
     4.6266   6.7099   8.7538   9.0236   9.4093  10.0698  10.5546  10.7440
    10.7677  11.3930  11.9402  12.5418  13.2865  13.3549  15.2167  15.5589
    15.6071  16.5145  17.3728  17.5855  17.6245  18.1341  18.8557  19.2656

     occupation numbers 
     1.0000   1.0000   1.0000   1.0000   1.0000   1.0000   1.0000   1.0000
     1.0000   1.0000   1.0000   1.0000   1.0000   0.0000   0.0000   0.0000
     0.0000   0.0000   0.0000   0.0000   0.0000   0.0000   0.0000   0.0000
     0.0000   0.0000   0.0000   0.0000   0.0000   0.0000   0.0000   0.0000
     0.0000   0.0000   0.0000   0.0000   0.0000   0.0000   0.0000   0.0000

          k = 0.1250 0.2165 0.0000 (  7043 PWs)   bands (ev):

   -59.9952 -34.4659 -34.3794 -34.2449 -13.2096 -12.2454  -4.8470  -3.3393
    -2.9521  -2.3588  -1.6207  -0.4923  -0.2138   2.5081   3.0001   3.0270
     4.4069   6.0797   6.7086   7.7087   9.3913   9.5152  10.0631  10.5161
    11.2553  11.9194  12.3332  12.9508  13.6485  14.3558  14.4876  15.6318
    15.6559  17.3122  18.0434  19.0082  19.0545  19.4826  19.7128  20.2882

     occupation numbers 
     1.0000   1.0000   1.0000   1.0000   1.0000   1.0000   1.0000   1.0000
     1.0000   1.0000   1.0000   1.0000   1.0000   0.0000   0.0000   0.0000
     0.0000   0.0000   0.0000   0.0000   0.0000   0.0000   0.0000   0.0000
     0.0000   0.0000   0.0000   0.0000   0.0000   0.0000   0.0000   0.0000
     0.0000   0.0000   0.0000   0.0000   0.0000   0.0000   0.0000   0.0000

          k = 0.1250 0.2646 0.0000 (  7041 PWs)   bands (ev):

   -59.9889 -34.4542 -34.4303 -34.2635 -12.9775 -12.1524  -4.7766  -3.4586
    -3.2118  -2.6740  -1.5213  -0.5514  -0.3779   2.3928   2.9932   3.0895
     4.6327   6.4224   7.0333   7.9901   9.5231   9.7196  10.2235  10.3062
    11.3391  12.1708  12.3292  12.9171  13.3565  14.3717  14.8358  15.7047
    15.7105  17.4599  17.7089  18.4113  18.5137  18.5649  19.2526  19.4670

     occupation numbers 
     1.0000   1.0000   1.0000   1.0000   1.0000   1.0000   1.0000   1.0000
     1.0000   1.0000   1.0000   1.0000   1.0000   0.0000   0.0000   0.0000
     0.0000   0.0000   0.0000   0.0000   0.0000   0.0000   0.0000   0.0000
     0.0000   0.0000   0.0000   0.0000   0.0000   0.0000   0.0000   0.0000
     0.0000   0.0000   0.0000   0.0000   0.0000   0.0000   0.0000   0.0000

          k = 0.1250 0.3127 0.0000 (  7024 PWs)   bands (ev):

   -59.9813 -34.4821 -34.4421 -34.2826 -12.7230 -12.0509  -4.8148  -3.5545
    -3.4741  -2.8577  -1.5144  -0.6915  -0.4690   2.3603   3.0206   3.2593
     4.8093   6.8244   7.4008   8.2863   9.3963   9.4726  10.3295  10.5390
    11.5819  12.3351  12.4019  12.8360  13.0487  14.6943  15.1814  15.7153
    15.8734  16.5024  17.1408  18.0708  18.0814  18.3781  18.8601  19.0283

     occupation numbers 
     1.0000   1.0000   1.0000   1.0000   1.0000   1.0000   1.0000   1.0000
     1.0000   1.0000   1.0000   1.0000   1.0000   0.0000   0.0000   0.0000
     0.0000   0.0000   0.0000   0.0000   0.0000   0.0000   0.0000   0.0000
     0.0000   0.0000   0.0000   0.0000   0.0000   0.0000   0.0000   0.0000
     0.0000   0.0000   0.0000   0.0000   0.0000   0.0000   0.0000   0.0000

          k = 0.1250 0.3608 0.0000 (  7030 PWs)   bands (ev):

   -59.9755 -34.5321 -34.4304 -34.3015 -12.4608 -11.9471  -4.9418  -3.9251
    -3.4458  -2.9409  -1.5766  -0.8822  -0.4511   2.4260   3.0842   3.4768
     4.9220   7.2746   7.7911   8.5608   8.9559   9.3508  10.5279  10.6272
    11.6858  12.3351  12.3446  12.9550  13.3601  14.8806  15.2631  15.3438
    15.7091  16.3269  16.4202  17.4345  17.7857  18.1923  18.7978  19.0876

     occupation numbers 
     1.0000   1.0000   1.0000   1.0000   1.0000   1.0000   1.0000   1.0000
     1.0000   1.0000   1.0000   1.0000   1.0000   0.0000   0.0000   0.0000
     0.0000   0.0000   0.0000   0.0000   0.0000   0.0000   0.0000   0.0000
     0.0000   0.0000   0.0000   0.0000   0.0000   0.0000   0.0000   0.0000
     0.0000   0.0000   0.0000   0.0000   0.0000   0.0000   0.0000   0.0000

          k = 0.1250 0.4090 0.0000 (  7046 PWs)   bands (ev):

   -59.9709 -34.5766 -34.4201 -34.3187 -12.2090 -11.8484  -5.1009  -4.2658
    -3.4690  -2.9651  -1.6096  -1.0898  -0.3593   2.5696   3.1637   3.7075
     4.9629   7.7103   8.1741   8.3693   8.9555   9.3437  10.7091  10.7337
    11.3302  12.2959  12.3454  13.4077  13.7122  14.2116  15.0083  15.1823
    15.6252  16.1384  16.3245  17.1873  17.6174  18.0397  18.4423  18.8686

     occupation numbers 
     1.0000   1.0000   1.0000   1.0000   1.0000   1.0000   1.0000   1.0000
     1.0000   1.0000   1.0000   1.0000   1.0000   0.0000   0.0000   0.0000
     0.0000   0.0000   0.0000   0.0000   0.0000   0.0000   0.0000   0.0000
     0.0000   0.0000   0.0000   0.0000   0.0000   0.0000   0.0000   0.0000
     0.0000   0.0000   0.0000   0.0000   0.0000   0.0000   0.0000   0.0000

          k = 0.1250 0.4571 0.0000 (  7039 PWs)   bands (ev):

   -59.9658 -34.6126 -34.4112 -34.3325 -11.9888 -11.7633  -5.2497  -4.5447
    -3.5654  -2.9537  -1.5781  -1.2839  -0.2281   2.7268   3.2642   3.9262
     4.9347   7.5898   8.4531   8.5291   9.2927   9.4839  10.7680  10.8630
    10.9660  12.2703  12.2721  13.0337  13.8466  14.0148  14.5899  15.3797
    15.6470  15.8137  16.4711  17.1292  17.6689  17.8381  18.3147  18.5480

     occupation numbers 
     1.0000   1.0000   1.0000   1.0000   1.0000   1.0000   1.0000   1.0000
     1.0000   1.0000   1.0000   1.0000   1.0000   0.0000   0.0000   0.0000
     0.0000   0.0000   0.0000   0.0000   0.0000   0.0000   0.0000   0.0000
     0.0000   0.0000   0.0000   0.0000   0.0000   0.0000   0.0000   0.0000
     0.0000   0.0000   0.0000   0.0000   0.0000   0.0000   0.0000   0.0000

          k = 0.1250 0.5052 0.0000 (  7045 PWs)   bands (ev):

   -59.9630 -34.6382 -34.4050 -34.3423 -11.8237 -11.7004  -5.3628  -4.7418
    -3.6805  -2.9266  -1.5249  -1.4372  -0.0895   2.8165   3.4032   4.1134
     4.8589   7.1445   8.8725   8.9206   9.6242   9.7397  10.5103  10.7636
    11.0764  11.9496  12.2231  12.5038  13.5862  13.9021  14.6342  15.2729
    15.6973  16.2566  16.4954  17.0461  17.5251  17.8772  18.2581  18.3532

     occupation numbers 
     1.0000   1.0000   1.0000   1.0000   1.0000   1.0000   1.0000   1.0000
     1.0000   1.0000   1.0000   1.0000   1.0000   0.0000   0.0000   0.0000
     0.0000   0.0000   0.0000   0.0000   0.0000   0.0000   0.0000   0.0000
     0.0000   0.0000   0.0000   0.0000   0.0000   0.0000   0.0000   0.0000
     0.0000   0.0000   0.0000   0.0000   0.0000   0.0000   0.0000   0.0000

          k = 0.1250 0.5533 0.0000 (  7053 PWs)   bands (ev):

   -59.9618 -34.6513 -34.4021 -34.3474 -11.7347 -11.6668  -5.4238  -4.8438
    -3.7540  -2.9049  -1.5231  -1.4910   0.0042   2.8375   3.5211   4.2376
     4.7834   6.8641   9.2083   9.3086   9.5426  10.1435  10.3531  10.8440
    10.9633  11.3904  12.0886  12.5965  13.4040  13.5393  14.8402  15.3761
    15.5137  16.6035  16.6482  17.0355  17.4545  17.6293  18.2573  18.4062

     occupation numbers 
     1.0000   1.0000   1.0000   1.0000   1.0000   1.0000   1.0000   1.0000
     1.0000   1.0000   1.0000   1.0000   1.0000   0.0000   0.0000   0.0000
     0.0000   0.0000   0.0000   0.0000   0.0000   0.0000   0.0000   0.0000
     0.0000   0.0000   0.0000   0.0000   0.0000   0.0000   0.0000   0.0000
     0.0000   0.0000   0.0000   0.0000   0.0000   0.0000   0.0000   0.0000

          k = 0.1667 0.2887 0.0000 (  7031 PWs)   bands (ev):

   -59.9822 -34.4745 -34.4430 -34.2855 -12.7419 -12.0576  -4.7842  -3.4661
    -3.4620  -2.9575  -1.5789  -0.6058  -0.4525   2.3241   3.0353   3.1682
     4.8291   6.7949   7.3795   8.2911   9.5503   9.6180  10.3061  10.6874
    11.3694  12.2779  12.3219  12.7257  12.9315  14.7018  15.1909  15.6188
    15.9188  17.2430  17.2908  17.5630  18.0292  18.6020  18.7280  19.0623

     occupation numbers 
     1.0000   1.0000   1.0000   1.0000   1.0000   1.0000   1.0000   1.0000
     1.0000   1.0000   1.0000   1.0000   1.0000   0.0000   0.0000   0.0000
     0.0000   0.0000   0.0000   0.0000   0.0000   0.0000   0.0000   0.0000
     0.0000   0.0000   0.0000   0.0000   0.0000   0.0000   0.0000   0.0000
     0.0000   0.0000   0.0000   0.0000   0.0000   0.0000   0.0000   0.0000

          k = 0.1667 0.3368 0.0000 (  7027 PWs)   bands (ev):

   -59.9759 -34.5173 -34.4318 -34.3088 -12.4922 -11.9570  -4.8668  -3.8311
    -3.3971  -3.0634  -1.7433  -0.7432  -0.4438   2.3601   3.1116   3.3112
     4.9697   7.2218   7.7639   8.5870   9.2095   9.6083  10.4659  10.9053
    11.4770  12.1800  12.4383  12.6399  13.0318  14.9350  15.1664  15.6852
    15.8884  16.3780  16.9425  16.9701  17.6890  18.0098  18.7004  18.7449

     occupation numbers 
     1.0000   1.0000   1.0000   1.0000   1.0000   1.0000   1.0000   1.0000
     1.0000   1.0000   1.0000   1.0000   1.0000   0.0000   0.0000   0.0000
     0.0000   0.0000   0.0000   0.0000   0.0000   0.0000   0.0000   0.0000
     0.0000   0.0000   0.0000   0.0000   0.0000   0.0000   0.0000   0.0000
     0.0000   0.0000   0.0000   0.0000   0.0000   0.0000   0.0000   0.0000

          k = 0.1667 0.3849 0.0000 (  7038 PWs)   bands (ev):

   -59.9711 -34.5568 -34.4214 -34.3312 -12.2442 -11.8573  -4.9833  -4.2048
    -3.3541  -3.0725  -1.9133  -0.9365  -0.3751   2.4949   3.1961   3.4879
     5.0508   7.6746   8.1659   8.6302   9.0326   9.6080  10.7127  10.7985
    11.3651  12.3280  12.5004  12.9835  13.2782  14.8039  14.8559  15.2035
    15.7383  16.2526  16.3575  16.6668  17.4977  17.5505  18.4572  18.6394

     occupation numbers 
     1.0000   1.0000   1.0000   1.0000   1.0000   1.0000   1.0000   1.0000
     1.0000   1.0000   1.0000   1.0000   1.0000   0.0000   0.0000   0.0000
     0.0000   0.0000   0.0000   0.0000   0.0000   0.0000   0.0000   0.0000
     0.0000   0.0000   0.0000   0.0000   0.0000   0.0000   0.0000   0.0000
     0.0000   0.0000   0.0000   0.0000   0.0000   0.0000   0.0000   0.0000

          k = 0.1667 0.4330 0.0000 (  7040 PWs)   bands (ev):

   -59.9664 -34.5899 -34.4122 -34.3510 -12.0169 -11.7662  -5.0962  -4.5293
    -3.4091  -3.0312  -1.9982  -1.1509  -0.2605   2.6619   3.2920   3.6649
     5.0771   7.8732   8.4677   8.5617   9.2933   9.7230  10.6237  10.9152
    11.2848  12.4079  12.4324  13.3740  13.5976  13.9329  14.6237  15.1874
    15.4445  15.8720  16.2545  16.4317  17.4281  17.4798  18.1275  18.4043

     occupation numbers 
     1.0000   1.0000   1.0000   1.0000   1.0000   1.0000   1.0000   1.0000
     1.0000   1.0000   1.0000   1.0000   1.0000   0.0000   0.0000   0.0000
     0.0000   0.0000   0.0000   0.0000   0.0000   0.0000   0.0000   0.0000
     0.0000   0.0000   0.0000   0.0000   0.0000   0.0000   0.0000   0.0000
     0.0000   0.0000   0.0000   0.0000   0.0000   0.0000   0.0000   0.0000

          k = 0.1667 0.4811 0.0000 (  7045 PWs)   bands (ev):

   -59.9630 -34.6151 -34.4053 -34.3662 -11.8319 -11.6925  -5.1842  -4.7778
    -3.5401  -2.9647  -2.0031  -1.3509  -0.1144   2.7574   3.4384   3.8152
     5.0629   7.4806   8.8859   8.9435   9.6305   9.9298  10.4461  10.9728
    11.3128  12.3406  12.3422  12.8273  13.7492  13.9377  14.3306  15.0868
    15.2833  15.9425  16.1467  16.3720  17.3519  17.4376  17.7645  18.2685

     occupation numbers 
     1.0000   1.0000   1.0000   1.0000   1.0000   1.0000   1.0000   1.0000
     1.0000   1.0000   1.0000   1.0000   1.0000   0.0000   0.0000   0.0000
     0.0000   0.0000   0.0000   0.0000   0.0000   0.0000   0.0000   0.0000
     0.0000   0.0000   0.0000   0.0000   0.0000   0.0000   0.0000   0.0000
     0.0000   0.0000   0.0000   0.0000   0.0000   0.0000   0.0000   0.0000

          k = 0.1667 0.5292 0.0000 (  7052 PWs)   bands (ev):

   -59.9611 -34.6308 -34.4009 -34.3760 -11.7101 -11.6443  -5.2382  -4.9338
    -3.6618  -2.9014  -1.9845  -1.4983   0.0189   2.7595   3.6077   3.9178
     5.0342   7.1164   9.3105   9.3460   9.9369  10.0345  10.3823  10.9665
    11.3143  11.8040  12.2675  12.6663  13.5251  13.8045  14.3351  15.1563
    15.3151  15.9372  16.1510  16.5982  17.2068  17.4312  17.6820  17.8873

     occupation numbers 
     1.0000   1.0000   1.0000   1.0000   1.0000   1.0000   1.0000   1.0000
     1.0000   1.0000   1.0000   1.0000   1.0000   0.0000   0.0000   0.0000
     0.0000   0.0000   0.0000   0.0000   0.0000   0.0000   0.0000   0.0000
     0.0000   0.0000   0.0000   0.0000   0.0000   0.0000   0.0000   0.0000
     0.0000   0.0000   0.0000   0.0000   0.0000   0.0000   0.0000   0.0000

          k = 0.1667 0.5774 0.0000 (  7054 PWs)   bands (ev):

   -59.9604 -34.6362 -34.3994 -34.3794 -11.6674 -11.6274  -5.2562  -4.9869
    -3.7096  -2.8746  -1.9758  -1.5538   0.0745   2.7458   3.6847   3.9548
     5.0200   6.9755   9.5338   9.6380   9.8468   9.9614  10.7557  10.9977
    11.0040  11.5335  12.2207  12.7443  13.3801  13.6364  14.4276  15.1600
    15.3986  15.9309  16.0673  16.9110  17.1225  17.4274  17.6399  17.6683

     occupation numbers 
     1.0000   1.0000   1.0000   1.0000   1.0000   1.0000   1.0000   1.0000
     1.0000   1.0000   1.0000   1.0000   1.0000   0.0000   0.0000   0.0000
     0.0000   0.0000   0.0000   0.0000   0.0000   0.0000   0.0000   0.0000
     0.0000   0.0000   0.0000   0.0000   0.0000   0.0000   0.0000   0.0000
     0.0000   0.0000   0.0000   0.0000   0.0000   0.0000   0.0000   0.0000

          k = 0.2083 0.3608 0.0000 (  7015 PWs)   bands (ev):

   -59.9698 -34.5487 -34.4216 -34.3364 -12.2561 -11.8602  -4.9384  -4.1796
    -3.2997  -3.1163  -2.0363  -0.8771  -0.3829   2.4686   3.2075   3.4046
     5.0855   7.6573   8.1602   8.7324   9.0743   9.7325  10.6940  10.7381
    11.6043  12.1788  12.6468  12.7866  13.0716  14.6666  15.1456  15.5074
    15.7034  15.8897  16.6291  16.7342  16.8998  17.5550  18.2584  18.9568

     occupation numbers 
     1.0000   1.0000   1.0000   1.0000   1.0000   1.0000   1.0000   1.0000
     1.0000   1.0000   1.0000   1.0000   1.0000   0.0000   0.0000   0.0000
     0.0000   0.0000   0.0000   0.0000   0.0000   0.0000   0.0000   0.0000
     0.0000   0.0000   0.0000   0.0000   0.0000   0.0000   0.0000   0.0000
     0.0000   0.0000   0.0000   0.0000   0.0000   0.0000   0.0000   0.0000

          k = 0.2083 0.4090 0.0000 (  7036 PWs)   bands (ev):

   -59.9663 -34.5751 -34.4127 -34.3635 -12.0316 -11.7674  -5.0015  -4.5195
    -3.2637  -3.0801  -2.2945  -1.0678  -0.2846   2.6246   3.3091   3.5116
     5.1667   8.0064   8.5657   8.5657   9.2309   9.8873  10.4404  10.9935
    11.7365  12.4140  12.6868  13.0964  13.3130  14.2378  14.5087  15.2629
    15.5076  15.5337  16.2355  16.3823  16.7788  17.0557  18.3955  18.6217

     occupation numbers 
     1.0000   1.0000   1.0000   1.0000   1.0000   1.0000   1.0000   1.0000
     1.0000   1.0000   1.0000   1.0000   1.0000   0.0000   0.0000   0.0000
     0.0000   0.0000   0.0000   0.0000   0.0000   0.0000   0.0000   0.0000
     0.0000   0.0000   0.0000   0.0000   0.0000   0.0000   0.0000   0.0000
     0.0000   0.0000   0.0000   0.0000   0.0000   0.0000   0.0000   0.0000

          k = 0.2083 0.4571 0.0000 (  7046 PWs)   bands (ev):

   -59.9630 -34.5950 -34.4052 -34.3872 -11.8378 -11.6868  -5.0388  -4.8031
    -3.3580  -2.9958  -2.4291  -1.2799  -0.1425   2.7099   3.4655   3.6050
     5.2214   7.8100   8.7978   8.9566   9.4134  10.1326  10.4140  11.2437
    11.7828  12.5180  12.5512  13.2885  13.5628  13.7757  14.1816  14.8215
    15.0750  15.4977  15.9841  16.1796  16.7744  16.8438  18.0929  18.4368

     occupation numbers 
     1.0000   1.0000   1.0000   1.0000   1.0000   1.0000   1.0000   1.0000
     1.0000   1.0000   1.0000   1.0000   1.0000   0.0000   0.0000   0.0000
     0.0000   0.0000   0.0000   0.0000   0.0000   0.0000   0.0000   0.0000
     0.0000   0.0000   0.0000   0.0000   0.0000   0.0000   0.0000   0.0000
     0.0000   0.0000   0.0000   0.0000   0.0000   0.0000   0.0000   0.0000

          k = 0.2083 0.5052 0.0000 (  7052 PWs)   bands (ev):

   -59.9606 -34.6084 -34.4046 -34.3999 -11.6941 -11.6268  -5.0484  -5.0050
    -3.5271  -2.8964  -2.4603  -1.4715   0.0174   2.6793   3.6701   3.6754
     5.2542   7.4331   9.0586   9.3169   9.7453  10.4306  10.5775  11.2822
    11.8029  12.3457  12.3842  12.8294  13.5505  13.8655  14.2063  14.6109
    14.9648  15.1230  15.9829  16.3465  16.7027  16.7445  17.7180  18.1529

     occupation numbers 
     1.0000   1.0000   1.0000   1.0000   1.0000   1.0000   1.0000   1.0000
     1.0000   1.0000   1.0000   1.0000   1.0000   0.0000   0.0000   0.0000
     0.0000   0.0000   0.0000   0.0000   0.0000   0.0000   0.0000   0.0000
     0.0000   0.0000   0.0000   0.0000   0.0000   0.0000   0.0000   0.0000
     0.0000   0.0000   0.0000   0.0000   0.0000   0.0000   0.0000   0.0000

          k = 0.2083 0.5533 0.0000 (  7046 PWs)   bands (ev):

   -59.9588 -34.6149 -34.4137 -34.3971 -11.6174 -11.5946  -5.1098  -5.0439
    -3.6481  -2.8247  -2.4604  -1.5915   0.1301   2.6196   3.7026   3.8301
     5.2690   7.1886   9.1486   9.5849  10.1197  10.6140  10.8730  11.1845
    11.5301  11.9428  12.4023  12.8215  13.3211  13.8288  14.1161  14.8081
    14.9037  15.0957  15.8376  16.5210  16.5843  16.9905  17.5043  17.7626

     occupation numbers 
     1.0000   1.0000   1.0000   1.0000   1.0000   1.0000   1.0000   1.0000
     1.0000   1.0000   1.0000   1.0000   1.0000   0.0000   0.0000   0.0000
     0.0000   0.0000   0.0000   0.0000   0.0000   0.0000   0.0000   0.0000
     0.0000   0.0000   0.0000   0.0000   0.0000   0.0000   0.0000   0.0000
     0.0000   0.0000   0.0000   0.0000   0.0000   0.0000   0.0000   0.0000

          k = 0.2500 0.4330 0.0000 (  7037 PWs)   bands (ev):

   -59.9625 -34.5865 -34.4051 -34.3958 -11.8399 -11.6847  -4.9819  -4.8122
    -3.2297  -3.0077  -2.6473  -1.2522  -0.1542   2.6922   3.4754   3.5297
     5.2807   7.9789   8.7296   8.9585   9.3010  10.1981  10.4141  11.3590
    12.0856  12.5843  12.7005  13.2995  13.4550  13.8096  14.2268  14.3064
    15.1653  15.6964  15.8118  15.8950  16.4937  16.7399  18.4390  18.4592

     occupation numbers 
     1.0000   1.0000   1.0000   1.0000   1.0000   1.0000   1.0000   1.0000
     1.0000   1.0000   1.0000   1.0000   1.0000   0.0000   0.0000   0.0000
     0.0000   0.0000   0.0000   0.0000   0.0000   0.0000   0.0000   0.0000
     0.0000   0.0000   0.0000   0.0000   0.0000   0.0000   0.0000   0.0000
     0.0000   0.0000   0.0000   0.0000   0.0000   0.0000   0.0000   0.0000

          k = 0.2500 0.4811 0.0000 (  7043 PWs)   bands (ev):

   -59.9598 -34.5917 -34.4241 -34.3995 -11.6864 -11.6172  -5.0442  -4.9221
    -3.3513  -2.8937  -2.8393  -1.4533   0.0133   2.6302   3.5356   3.7114
     5.3831   7.7265   8.7234   9.3168   9.6751  10.5731  10.6879  11.6614
    12.2430  12.5139  12.7052  13.2291  13.3043  13.7395  14.0284  14.1087
    14.6129  15.2847  15.4732  15.8543  16.4971  16.6479  18.0567  18.2514

     occupation numbers 
     1.0000   1.0000   1.0000   1.0000   1.0000   1.0000   1.0000   1.0000
     1.0000   1.0000   1.0000   1.0000   1.0000   0.0000   0.0000   0.0000
     0.0000   0.0000   0.0000   0.0000   0.0000   0.0000   0.0000   0.0000
     0.0000   0.0000   0.0000   0.0000   0.0000   0.0000   0.0000   0.0000
     0.0000   0.0000   0.0000   0.0000   0.0000   0.0000   0.0000   0.0000

          k = 0.2500 0.5292 0.0000 (  7041 PWs)   bands (ev):

   -59.9578 -34.5927 -34.4442 -34.3957 -11.5867 -11.5728  -5.1921  -4.8430
    -3.5647  -2.8761  -2.7808  -1.6221   0.1701   2.5134   3.5340   3.9268
     5.4545   7.4689   8.6639   9.6081  10.2236  10.9695  11.0223  11.6167
    12.1487  12.4256  12.4488  12.9275  13.2300  13.8585  14.0788  14.0826
    14.3350  14.9518  15.4047  15.7464  16.4571  16.8919  17.6369  17.9423

     occupation numbers 
     1.0000   1.0000   1.0000   1.0000   1.0000   1.0000   1.0000   1.0000
     1.0000   1.0000   1.0000   1.0000   1.0000   0.0000   0.0000   0.0000
     0.0000   0.0000   0.0000   0.0000   0.0000   0.0000   0.0000   0.0000
     0.0000   0.0000   0.0000   0.0000   0.0000   0.0000   0.0000   0.0000
     0.0000   0.0000   0.0000   0.0000   0.0000   0.0000   0.0000   0.0000

          k = 0.2500 0.5774 0.0000 (  7045 PWs)   bands (ev):

   -59.9574 -34.5925 -34.4516 -34.3945 -11.5573 -11.5522  -5.2429  -4.8020
    -3.6638  -2.8787  -2.7302  -1.6921   0.2372   2.4557   3.5325   4.0149
     5.4800   7.3611   8.6465   9.7346  10.5343  11.2477  11.3089  11.3924
    11.6681  12.4247  12.5232  12.8713  13.1298  13.9141  14.0475  14.0622
    14.3022  14.8494  15.4447  15.7339  16.3665  17.1658  17.4388  17.7285

     occupation numbers 
     1.0000   1.0000   1.0000   1.0000   1.0000   1.0000   1.0000   1.0000
     1.0000   1.0000   1.0000   1.0000   1.0000   0.0000   0.0000   0.0000
     0.0000   0.0000   0.0000   0.0000   0.0000   0.0000   0.0000   0.0000
     0.0000   0.0000   0.0000   0.0000   0.0000   0.0000   0.0000   0.0000
     0.0000   0.0000   0.0000   0.0000   0.0000   0.0000   0.0000   0.0000

          k = 0.2917 0.5052 0.0000 (  7043 PWs)   bands (ev):

   -59.9577 -34.5818 -34.4580 -34.3953 -11.5764 -11.5651  -5.2211  -4.7540
    -3.4956  -3.0789  -2.7635  -1.6338   0.1853   2.4720   3.4750   3.9602
     5.5232   7.6535   8.4096   9.6158  10.2375  11.0411  11.0987  11.9740
    12.4058  12.4753  12.7136  13.1333  13.2008  13.2810  13.8464  13.9879
    14.5548  14.9421  15.0191  15.3507  16.4914  16.8337  17.9027  17.9867

     occupation numbers 
     1.0000   1.0000   1.0000   1.0000   1.0000   1.0000   1.0000   1.0000
     1.0000   1.0000   1.0000   1.0000   1.0000   0.0000   0.0000   0.0000
     0.0000   0.0000   0.0000   0.0000   0.0000   0.0000   0.0000   0.0000
     0.0000   0.0000   0.0000   0.0000   0.0000   0.0000   0.0000   0.0000
     0.0000   0.0000   0.0000   0.0000   0.0000   0.0000   0.0000   0.0000

          k = 0.2917 0.5533 0.0000 (  7041 PWs)   bands (ev):

   -59.9565 -34.5713 -34.4811 -34.3929 -11.5371 -11.5186  -5.3143  -4.5898
    -3.7285  -3.1260  -2.6617  -1.7620   0.3084   2.3441   3.4402   4.1184
     5.6039   7.5944   8.2303   9.8081  10.7547  11.4276  11.5015  11.9305
    12.1278  12.3579  12.5864  13.0527  13.2248  13.2333  13.7099  14.2008
    14.2597  14.7535  14.8989  15.1127  16.4914  17.0993  17.5586  17.8370

     occupation numbers 
     1.0000   1.0000   1.0000   1.0000   1.0000   1.0000   1.0000   1.0000
     1.0000   1.0000   1.0000   1.0000   1.0000   0.0000   0.0000   0.0000
     0.0000   0.0000   0.0000   0.0000   0.0000   0.0000   0.0000   0.0000
     0.0000   0.0000   0.0000   0.0000   0.0000   0.0000   0.0000   0.0000
     0.0000   0.0000   0.0000   0.0000   0.0000   0.0000   0.0000   0.0000

          k = 0.3333 0.5774 0.0000 (  7047 PWs)   bands (ev):

   -59.9564 -34.5567 -34.5010 -34.3921 -11.5246 -11.4952  -5.3566  -4.4216
    -3.8911  -3.1871  -2.6061  -1.8246   0.3675   2.2708   3.4070   4.1903
     5.6589   7.7478   7.9650   9.8845  11.0105  11.5926  11.9146  12.0546
    12.1795  12.2293  12.3349  12.8846  13.1598  13.2987  13.8316  13.9454
    14.5867  14.6584  14.6696  14.6703  16.6190  17.1093  17.5271  17.8568

     occupation numbers 
     1.0000   1.0000   1.0000   1.0000   1.0000   1.0000   1.0000   1.0000
     1.0000   1.0000   1.0000   1.0000   1.0000   0.0000   0.0000   0.0000
     0.0000   0.0000   0.0000   0.0000   0.0000   0.0000   0.0000   0.0000
     0.0000   0.0000   0.0000   0.0000   0.0000   0.0000   0.0000   0.0000
     0.0000   0.0000   0.0000   0.0000   0.0000   0.0000   0.0000   0.0000

     the Fermi energy is     1.3940 ev
     (compare with:     1.5946 eV, computed in scf)

     Writing output data file run_output/MoS2_2D.save/

     init_run     :      0.41s CPU      0.44s WALL (       1 calls)
     electrons    :      5.60s CPU      5.70s WALL (       1 calls)

     Called by init_run:
     wfcinit      :      0.00s CPU      0.00s WALL (       1 calls)
     wfcinit:atom :      0.01s CPU      0.01s WALL (       9 calls)
     wfcinit:wfcr :      0.41s CPU      0.41s WALL (       9 calls)
     potinit      :      0.02s CPU      0.05s WALL (       1 calls)
     hinit0       :      0.22s CPU      0.22s WALL (       1 calls)

     Called by electrons:
     c_bands      :      5.59s CPU      5.68s WALL (       1 calls)
     v_of_rho     :      0.01s CPU      0.01s WALL (       1 calls)
     v_h          :      0.00s CPU      0.00s WALL (       1 calls)
     v_xc         :      0.00s CPU      0.00s WALL (       1 calls)

     Called by c_bands:
     init_us_2    :      0.01s CPU      0.01s WALL (       9 calls)
     cegterg      :      4.04s CPU      4.12s WALL (      11 calls)

     Called by sum_band:

     Called by *egterg:
     cdiaghg      :      0.68s CPU      0.68s WALL (     153 calls)
     cegterg:over :      0.21s CPU      0.22s WALL (     144 calls)
     cegterg:upda :      0.19s CPU      0.20s WALL (     144 calls)
     cegterg:last :      0.08s CPU      0.08s WALL (      27 calls)
     cdiaghg:chol :      0.05s CPU      0.05s WALL (     153 calls)
     cdiaghg:inve :      0.01s CPU      0.01s WALL (     153 calls)
     cdiaghg:para :      0.11s CPU      0.11s WALL (     306 calls)
     h_psi        :      3.20s CPU      3.25s WALL (     164 calls)
     g_psi        :      0.04s CPU      0.04s WALL (     144 calls)

     Called by h_psi:
     h_psi:calbec :      0.04s CPU      0.04s WALL (     164 calls)
     vloc_psi     :      3.11s CPU      3.16s WALL (     164 calls)
     add_vuspsi   :      0.03s CPU      0.03s WALL (     164 calls)

     General routines
     calbec       :      0.04s CPU      0.04s WALL (     164 calls)
     fft          :      0.01s CPU      0.01s WALL (       4 calls)
     fftw         :      2.55s CPU      2.60s WALL (    6378 calls)
     davcio       :      0.00s CPU      0.01s WALL (      18 calls)

     Parallel routines
     fft_scatt_xy :      0.42s CPU      0.43s WALL (    6382 calls)
     fft_scatt_yz :      0.45s CPU      0.46s WALL (    6382 calls)

     PWSCF        :      6.37s CPU     10.56s WALL


   This run was terminated on:  16:28:51  23Dec2021            

=------------------------------------------------------------------------------=
   JOB DONE.
=------------------------------------------------------------------------------=
