
     Program PWSCF v.6.7MaX starts on 21Jul2022 at 12:29:27 

     This program is part of the open-source Quantum ESPRESSO suite
     for quantum simulation of materials; please cite
         "P. Giannozzi et al., J. Phys.:Condens. Matter 21 395502 (2009);
         "P. Giannozzi et al., J. Phys.:Condens. Matter 29 465901 (2017);
          URL http://www.quantum-espresso.org", 
     in publications or presentations arising from this work. More details at
     http://www.quantum-espresso.org/quote

     Parallel version (MPI), running on    84 processors

     MPI processes distributed on     3 nodes
     K-points division:     npool     =       7
     R & G space division:  proc/nbgrp/npool/nimage =      12
     Waiting for input...
     Reading input from standard input
     Message from routine read_cards :
     DEPRECATED: no units specified in ATOMIC_POSITIONS card
     Message from routine read_cards :
     ATOMIC_POSITIONS: units set to alat

     Current dimensions of program PWSCF are:
     Max number of different atomic species (ntypx) = 10
     Max number of k-points (npk) =  40000
     Max angular momentum in pseudopotentials (lmaxx) =  3

     Atomic positions and unit cell read from directory:
     run_output/Silicon.save/


     Subspace diagonalization in iterative solution of the eigenvalue problem:
     one sub-group per band group will be used
     scalapack distributed-memory algorithm (size of sub-group:  3*  3 procs)


     Parallelization info
     --------------------
     sticks:   dense  smooth     PW     G-vecs:    dense   smooth      PW
     Min          17      17      7                  173      173      38
     Max          18      18      8                  175      175      39
     Sum         211     211     85                 2085     2085     459



     bravais-lattice index     =            2
     lattice parameter (alat)  =      10.1830  a.u.
     unit-cell volume          =     263.9777 (a.u.)^3
     number of atoms/cell      =            2
     number of atomic types    =            1
     number of electrons       =         8.00
     number of Kohn-Sham states=           10
     kinetic-energy cutoff     =      15.0000  Ry
     charge density cutoff     =      60.0000  Ry
     Exchange-correlation=  SLA  PZ   NOGX NOGC
                           (   1   1   0   0   0   0   0)

     celldm(1)=  10.183000  celldm(2)=   0.000000  celldm(3)=   0.000000
     celldm(4)=   0.000000  celldm(5)=   0.000000  celldm(6)=   0.000000

     crystal axes: (cart. coord. in units of alat)
               a(1) = (  -0.500000   0.000000   0.500000 )  
               a(2) = (   0.000000   0.500000   0.500000 )  
               a(3) = (  -0.500000   0.500000   0.000000 )  

     reciprocal axes: (cart. coord. in units 2 pi/alat)
               b(1) = ( -1.000000 -1.000000  1.000000 )  
               b(2) = (  1.000000  1.000000  1.000000 )  
               b(3) = ( -1.000000  1.000000 -1.000000 )  


     PseudoPot. # 1 for Si read from file:
     PPs/Si.vbc.UPF
     MD5 check sum: 7974b67c806a44bbea7c2da40a3c413a
     Pseudo is Norm-conserving, Zval =  4.0
     Generated by new atomic code, or converted to UPF format
     Using radial grid of  431 points,  2 beta functions with: 
                l(1) =   0
                l(2) =   1

     atomic species   valence    mass     pseudopotential
        Si             4.00    28.08600     Si( 1.00)

     24 Sym. Ops. (no inversion) found


                                    s                        frac. trans.

      isym =  1     identity                                     

 cryst.   s( 1) = (     1          0          0      )
                  (     0          1          0      )
                  (     0          0          1      )

 cart.    s( 1) = (  1.0000000  0.0000000  0.0000000 )
                  (  0.0000000  1.0000000  0.0000000 )
                  (  0.0000000  0.0000000  1.0000000 )


      isym =  2     180 deg rotation - cart. axis [0,0,1]        

 cryst.   s( 2) = (     0          1         -1      )
                  (     1          0         -1      )
                  (     0          0         -1      )

 cart.    s( 2) = ( -1.0000000  0.0000000  0.0000000 )
                  (  0.0000000 -1.0000000  0.0000000 )
                  (  0.0000000  0.0000000  1.0000000 )


      isym =  3     180 deg rotation - cart. axis [0,1,0]        

 cryst.   s( 3) = (    -1          0          0      )
                  (    -1          0          1      )
                  (    -1          1          0      )

 cart.    s( 3) = ( -1.0000000  0.0000000  0.0000000 )
                  (  0.0000000  1.0000000  0.0000000 )
                  (  0.0000000  0.0000000 -1.0000000 )


      isym =  4     180 deg rotation - cart. axis [1,0,0]        

 cryst.   s( 4) = (     0         -1          1      )
                  (     0         -1          0      )
                  (     1         -1          0      )

 cart.    s( 4) = (  1.0000000  0.0000000  0.0000000 )
                  (  0.0000000 -1.0000000  0.0000000 )
                  (  0.0000000  0.0000000 -1.0000000 )


      isym =  5     120 deg rotation - cart. axis [-1,-1,-1]     

 cryst.   s( 5) = (    -1          0          1      )
                  (    -1          1          0      )
                  (    -1          0          0      )

 cart.    s( 5) = (  0.0000000  1.0000000  0.0000000 )
                  (  0.0000000  0.0000000  1.0000000 )
                  (  1.0000000  0.0000000  0.0000000 )


      isym =  6     120 deg rotation - cart. axis [-1,1,1]       

 cryst.   s( 6) = (     0          1          0      )
                  (     0          0          1      )
                  (     1          0          0      )

 cart.    s( 6) = (  0.0000000 -1.0000000  0.0000000 )
                  (  0.0000000  0.0000000  1.0000000 )
                  ( -1.0000000  0.0000000  0.0000000 )


      isym =  7     120 deg rotation - cart. axis [1,1,-1]       

 cryst.   s( 7) = (     1          0         -1      )
                  (     0          0         -1      )
                  (     0          1         -1      )

 cart.    s( 7) = (  0.0000000  1.0000000  0.0000000 )
                  (  0.0000000  0.0000000 -1.0000000 )
                  ( -1.0000000  0.0000000  0.0000000 )


      isym =  8     120 deg rotation - cart. axis [1,-1,1]       

 cryst.   s( 8) = (     0         -1          0      )
                  (     1         -1          0      )
                  (     0         -1          1      )

 cart.    s( 8) = (  0.0000000 -1.0000000  0.0000000 )
                  (  0.0000000  0.0000000 -1.0000000 )
                  (  1.0000000  0.0000000  0.0000000 )


      isym =  9     120 deg rotation - cart. axis [1,1,1]        

 cryst.   s( 9) = (     0          0         -1      )
                  (     0          1         -1      )
                  (     1          0         -1      )

 cart.    s( 9) = (  0.0000000  0.0000000  1.0000000 )
                  (  1.0000000  0.0000000  0.0000000 )
                  (  0.0000000  1.0000000  0.0000000 )


      isym = 10     120 deg rotation - cart. axis [-1,1,-1]      

 cryst.   s(10) = (    -1          1          0      )
                  (    -1          0          0      )
                  (    -1          0          1      )

 cart.    s(10) = (  0.0000000  0.0000000  1.0000000 )
                  ( -1.0000000  0.0000000  0.0000000 )
                  (  0.0000000 -1.0000000  0.0000000 )


      isym = 11     120 deg rotation - cart. axis [1,-1,-1]      

 cryst.   s(11) = (     0          0          1      )
                  (     1          0          0      )
                  (     0          1          0      )

 cart.    s(11) = (  0.0000000  0.0000000 -1.0000000 )
                  ( -1.0000000  0.0000000  0.0000000 )
                  (  0.0000000  1.0000000  0.0000000 )


      isym = 12     120 deg rotation - cart. axis [-1,-1,1]      

 cryst.   s(12) = (     1         -1          0      )
                  (     0         -1          1      )
                  (     0         -1          0      )

 cart.    s(12) = (  0.0000000  0.0000000 -1.0000000 )
                  (  1.0000000  0.0000000  0.0000000 )
                  (  0.0000000 -1.0000000  0.0000000 )


      isym = 13     inv. 180 deg rotation - cart. axis [1,1,0]   

 cryst.   s(13) = (     0          1          0      )
                  (     1          0          0      )
                  (     0          0          1      )

 cart.    s(13) = (  0.0000000 -1.0000000  0.0000000 )
                  ( -1.0000000  0.0000000  0.0000000 )
                  (  0.0000000  0.0000000  1.0000000 )


      isym = 14     inv. 180 deg rotation - cart. axis [1,-1,0]  

 cryst.   s(14) = (     1          0         -1      )
                  (     0          1         -1      )
                  (     0          0         -1      )

 cart.    s(14) = (  0.0000000  1.0000000  0.0000000 )
                  (  1.0000000  0.0000000  0.0000000 )
                  (  0.0000000  0.0000000  1.0000000 )


      isym = 15     inv.  90 deg rotation - cart. axis [0,0,-1]  

 cryst.   s(15) = (     0         -1          0      )
                  (     0         -1          1      )
                  (     1         -1          0      )

 cart.    s(15) = (  0.0000000 -1.0000000  0.0000000 )
                  (  1.0000000  0.0000000  0.0000000 )
                  (  0.0000000  0.0000000 -1.0000000 )


      isym = 16     inv.  90 deg rotation - cart. axis [0,0,1]   

 cryst.   s(16) = (    -1          0          1      )
                  (    -1          0          0      )
                  (    -1          1          0      )

 cart.    s(16) = (  0.0000000  1.0000000  0.0000000 )
                  ( -1.0000000  0.0000000  0.0000000 )
                  (  0.0000000  0.0000000 -1.0000000 )


      isym = 17     inv. 180 deg rotation - cart. axis [1,0,1]   

 cryst.   s(17) = (     1          0          0      )
                  (     0          0          1      )
                  (     0          1          0      )

 cart.    s(17) = (  0.0000000  0.0000000 -1.0000000 )
                  (  0.0000000  1.0000000  0.0000000 )
                  ( -1.0000000  0.0000000  0.0000000 )


      isym = 18     inv. 180 deg rotation - cart. axis [-1,0,1]  

 cryst.   s(18) = (    -1          0          0      )
                  (    -1          1          0      )
                  (    -1          0          1      )

 cart.    s(18) = (  0.0000000  0.0000000  1.0000000 )
                  (  0.0000000  1.0000000  0.0000000 )
                  (  1.0000000  0.0000000  0.0000000 )


      isym = 19     inv.  90 deg rotation - cart. axis [0,1,0]   

 cryst.   s(19) = (     0         -1          1      )
                  (     1         -1          0      )
                  (     0         -1          0      )

 cart.    s(19) = (  0.0000000  0.0000000 -1.0000000 )
                  (  0.0000000 -1.0000000  0.0000000 )
                  (  1.0000000  0.0000000  0.0000000 )


      isym = 20     inv.  90 deg rotation - cart. axis [0,-1,0]  

 cryst.   s(20) = (     0          1         -1      )
                  (     0          0         -1      )
                  (     1          0         -1      )

 cart.    s(20) = (  0.0000000  0.0000000  1.0000000 )
                  (  0.0000000 -1.0000000  0.0000000 )
                  ( -1.0000000  0.0000000  0.0000000 )


      isym = 21     inv. 180 deg rotation - cart. axis [0,1,1]   

 cryst.   s(21) = (     1         -1          0      )
                  (     0         -1          0      )
                  (     0         -1          1      )

 cart.    s(21) = (  1.0000000  0.0000000  0.0000000 )
                  (  0.0000000  0.0000000 -1.0000000 )
                  (  0.0000000 -1.0000000  0.0000000 )


      isym = 22     inv. 180 deg rotation - cart. axis [0,1,-1]  

 cryst.   s(22) = (     0          0          1      )
                  (     0          1          0      )
                  (     1          0          0      )

 cart.    s(22) = (  1.0000000  0.0000000  0.0000000 )
                  (  0.0000000  0.0000000  1.0000000 )
                  (  0.0000000  1.0000000  0.0000000 )


      isym = 23     inv.  90 deg rotation - cart. axis [-1,0,0]  

 cryst.   s(23) = (     0          0         -1      )
                  (     1          0         -1      )
                  (     0          1         -1      )

 cart.    s(23) = ( -1.0000000  0.0000000  0.0000000 )
                  (  0.0000000  0.0000000 -1.0000000 )
                  (  0.0000000  1.0000000  0.0000000 )


      isym = 24     inv.  90 deg rotation - cart. axis [1,0,0]   

 cryst.   s(24) = (    -1          1          0      )
                  (    -1          0          1      )
                  (    -1          0          0      )

 cart.    s(24) = ( -1.0000000  0.0000000  0.0000000 )
                  (  0.0000000  0.0000000  1.0000000 )
                  (  0.0000000 -1.0000000  0.0000000 )


     point group T_d (-43m) 
     there are  5 classes
     the character table:

       E     8C3   3C2   6S4   6s_d 
A_1    1.00  1.00  1.00  1.00  1.00
A_2    1.00  1.00  1.00 -1.00 -1.00
E      2.00 -1.00  2.00  0.00  0.00
T_1    3.00  0.00 -1.00  1.00 -1.00
T_2    3.00  0.00 -1.00 -1.00  1.00

     the symmetry operations in each class and the name of the first element:

     E        1
          identity                                               
     8C3      5    7    8    6   12    9   10   11
          120 deg rotation - cart. axis [-1,-1,-1]               
     3C2      2    3    4
          180 deg rotation - cart. axis [0,0,1]                  
     6S4     15   16   20   19   23   24
          inv.  90 deg rotation - cart. axis [0,0,-1]            
     6s_d    13   14   17   18   21   22
          inv. 180 deg rotation - cart. axis [1,1,0]             

   Cartesian axes

     site n.     atom                  positions (alat units)
         1           Si  tau(   1) = (   0.0000000   0.0000000   0.0000000  )
         2           Si  tau(   2) = (   0.2500000   0.2500000   0.2500000  )

   Crystallographic axes

     site n.     atom                  positions (cryst. coord.)
         1           Si  tau(   1) = (  0.0000000  0.0000000  0.0000000  )
         2           Si  tau(   2) = ( -0.2500000  0.7500000 -0.2500000  )

     number of k points=   897
                       cart. coord. in units 2pi/alat
        k(    1) = (   0.0000000   0.0000000   0.0000000), wk =   0.0000610
        k(    2) = (  -0.0312500   0.0312500  -0.0312500), wk =   0.0004883
        k(    3) = (  -0.0625000   0.0625000  -0.0625000), wk =   0.0004883
        k(    4) = (  -0.0937500   0.0937500  -0.0937500), wk =   0.0004883
        k(    5) = (  -0.1250000   0.1250000  -0.1250000), wk =   0.0004883
        k(    6) = (  -0.1562500   0.1562500  -0.1562500), wk =   0.0004883
        k(    7) = (  -0.1875000   0.1875000  -0.1875000), wk =   0.0004883
        k(    8) = (  -0.2187500   0.2187500  -0.2187500), wk =   0.0004883
        k(    9) = (  -0.2500000   0.2500000  -0.2500000), wk =   0.0004883
        k(   10) = (  -0.2812500   0.2812500  -0.2812500), wk =   0.0004883
        k(   11) = (  -0.3125000   0.3125000  -0.3125000), wk =   0.0004883
        k(   12) = (  -0.3437500   0.3437500  -0.3437500), wk =   0.0004883
        k(   13) = (  -0.3750000   0.3750000  -0.3750000), wk =   0.0004883
        k(   14) = (  -0.4062500   0.4062500  -0.4062500), wk =   0.0004883
        k(   15) = (  -0.4375000   0.4375000  -0.4375000), wk =   0.0004883
        k(   16) = (  -0.4687500   0.4687500  -0.4687500), wk =   0.0004883
        k(   17) = (   0.5000000  -0.5000000   0.5000000), wk =   0.0002441
        k(   18) = (   0.0000000   0.0625000   0.0000000), wk =   0.0003662
        k(   19) = (  -0.0312500   0.0937500  -0.0312500), wk =   0.0014648
        k(   20) = (  -0.0625000   0.1250000  -0.0625000), wk =   0.0014648
        k(   21) = (  -0.0937500   0.1562500  -0.0937500), wk =   0.0014648
        k(   22) = (  -0.1250000   0.1875000  -0.1250000), wk =   0.0014648
        k(   23) = (  -0.1562500   0.2187500  -0.1562500), wk =   0.0014648
        k(   24) = (  -0.1875000   0.2500000  -0.1875000), wk =   0.0014648
        k(   25) = (  -0.2187500   0.2812500  -0.2187500), wk =   0.0014648
        k(   26) = (  -0.2500000   0.3125000  -0.2500000), wk =   0.0014648
        k(   27) = (  -0.2812500   0.3437500  -0.2812500), wk =   0.0014648
        k(   28) = (  -0.3125000   0.3750000  -0.3125000), wk =   0.0014648
        k(   29) = (  -0.3437500   0.4062500  -0.3437500), wk =   0.0014648
        k(   30) = (  -0.3750000   0.4375000  -0.3750000), wk =   0.0014648
        k(   31) = (  -0.4062500   0.4687500  -0.4062500), wk =   0.0014648
        k(   32) = (  -0.4375000   0.5000000  -0.4375000), wk =   0.0014648
        k(   33) = (   0.5312500  -0.4687500   0.5312500), wk =   0.0014648
        k(   34) = (   0.5000000  -0.4375000   0.5000000), wk =   0.0014648
        k(   35) = (   0.4687500  -0.4062500   0.4687500), wk =   0.0014648
        k(   36) = (   0.4375000  -0.3750000   0.4375000), wk =   0.0014648
        k(   37) = (   0.4062500  -0.3437500   0.4062500), wk =   0.0014648
        k(   38) = (   0.3750000  -0.3125000   0.3750000), wk =   0.0014648
        k(   39) = (   0.3437500  -0.2812500   0.3437500), wk =   0.0014648
        k(   40) = (   0.3125000  -0.2500000   0.3125000), wk =   0.0014648
        k(   41) = (   0.2812500  -0.2187500   0.2812500), wk =   0.0014648
        k(   42) = (   0.2500000  -0.1875000   0.2500000), wk =   0.0014648
        k(   43) = (   0.2187500  -0.1562500   0.2187500), wk =   0.0014648
        k(   44) = (   0.1875000  -0.1250000   0.1875000), wk =   0.0014648
        k(   45) = (   0.1562500  -0.0937500   0.1562500), wk =   0.0014648
        k(   46) = (   0.1250000  -0.0625000   0.1250000), wk =   0.0014648
        k(   47) = (   0.0937500  -0.0312500   0.0937500), wk =   0.0014648
        k(   48) = (   0.0625000   0.0000000   0.0625000), wk =   0.0007324
        k(   49) = (   0.0000000   0.1250000   0.0000000), wk =   0.0003662
        k(   50) = (  -0.0312500   0.1562500  -0.0312500), wk =   0.0014648
        k(   51) = (  -0.0625000   0.1875000  -0.0625000), wk =   0.0014648
        k(   52) = (  -0.0937500   0.2187500  -0.0937500), wk =   0.0014648
        k(   53) = (  -0.1250000   0.2500000  -0.1250000), wk =   0.0014648
        k(   54) = (  -0.1562500   0.2812500  -0.1562500), wk =   0.0014648
        k(   55) = (  -0.1875000   0.3125000  -0.1875000), wk =   0.0014648
        k(   56) = (  -0.2187500   0.3437500  -0.2187500), wk =   0.0014648
        k(   57) = (  -0.2500000   0.3750000  -0.2500000), wk =   0.0014648
        k(   58) = (  -0.2812500   0.4062500  -0.2812500), wk =   0.0014648
        k(   59) = (  -0.3125000   0.4375000  -0.3125000), wk =   0.0014648
        k(   60) = (  -0.3437500   0.4687500  -0.3437500), wk =   0.0014648
        k(   61) = (  -0.3750000   0.5000000  -0.3750000), wk =   0.0014648
        k(   62) = (  -0.4062500   0.5312500  -0.4062500), wk =   0.0014648
        k(   63) = (   0.5625000  -0.4375000   0.5625000), wk =   0.0014648
        k(   64) = (   0.5312500  -0.4062500   0.5312500), wk =   0.0014648
        k(   65) = (   0.5000000  -0.3750000   0.5000000), wk =   0.0014648
        k(   66) = (   0.4687500  -0.3437500   0.4687500), wk =   0.0014648
        k(   67) = (   0.4375000  -0.3125000   0.4375000), wk =   0.0014648
        k(   68) = (   0.4062500  -0.2812500   0.4062500), wk =   0.0014648
        k(   69) = (   0.3750000  -0.2500000   0.3750000), wk =   0.0014648
        k(   70) = (   0.3437500  -0.2187500   0.3437500), wk =   0.0014648
        k(   71) = (   0.3125000  -0.1875000   0.3125000), wk =   0.0014648
        k(   72) = (   0.2812500  -0.1562500   0.2812500), wk =   0.0014648
        k(   73) = (   0.2500000  -0.1250000   0.2500000), wk =   0.0014648
        k(   74) = (   0.2187500  -0.0937500   0.2187500), wk =   0.0014648
        k(   75) = (   0.1875000  -0.0625000   0.1875000), wk =   0.0014648
        k(   76) = (   0.1562500  -0.0312500   0.1562500), wk =   0.0014648
        k(   77) = (   0.1250000   0.0000000   0.1250000), wk =   0.0007324
        k(   78) = (   0.0000000   0.1875000   0.0000000), wk =   0.0003662
        k(   79) = (  -0.0312500   0.2187500  -0.0312500), wk =   0.0014648
        k(   80) = (  -0.0625000   0.2500000  -0.0625000), wk =   0.0014648
        k(   81) = (  -0.0937500   0.2812500  -0.0937500), wk =   0.0014648
        k(   82) = (  -0.1250000   0.3125000  -0.1250000), wk =   0.0014648
        k(   83) = (  -0.1562500   0.3437500  -0.1562500), wk =   0.0014648
        k(   84) = (  -0.1875000   0.3750000  -0.1875000), wk =   0.0014648
        k(   85) = (  -0.2187500   0.4062500  -0.2187500), wk =   0.0014648
        k(   86) = (  -0.2500000   0.4375000  -0.2500000), wk =   0.0014648
        k(   87) = (  -0.2812500   0.4687500  -0.2812500), wk =   0.0014648
        k(   88) = (  -0.3125000   0.5000000  -0.3125000), wk =   0.0014648
        k(   89) = (  -0.3437500   0.5312500  -0.3437500), wk =   0.0014648
        k(   90) = (  -0.3750000   0.5625000  -0.3750000), wk =   0.0014648
        k(   91) = (   0.5937500  -0.4062500   0.5937500), wk =   0.0014648
        k(   92) = (   0.5625000  -0.3750000   0.5625000), wk =   0.0014648
        k(   93) = (   0.5312500  -0.3437500   0.5312500), wk =   0.0014648
        k(   94) = (   0.5000000  -0.3125000   0.5000000), wk =   0.0014648
        k(   95) = (   0.4687500  -0.2812500   0.4687500), wk =   0.0014648
        k(   96) = (   0.4375000  -0.2500000   0.4375000), wk =   0.0014648
        k(   97) = (   0.4062500  -0.2187500   0.4062500), wk =   0.0014648
        k(   98) = (   0.3750000  -0.1875000   0.3750000), wk =   0.0014648
        k(   99) = (   0.3437500  -0.1562500   0.3437500), wk =   0.0014648
        k(  100) = (   0.3125000  -0.1250000   0.3125000), wk =   0.0014648
        k(  101) = (   0.2812500  -0.0937500   0.2812500), wk =   0.0014648
        k(  102) = (   0.2500000  -0.0625000   0.2500000), wk =   0.0014648
        k(  103) = (   0.2187500  -0.0312500   0.2187500), wk =   0.0014648
        k(  104) = (   0.1875000   0.0000000   0.1875000), wk =   0.0007324
        k(  105) = (   0.0000000   0.2500000   0.0000000), wk =   0.0003662
        k(  106) = (  -0.0312500   0.2812500  -0.0312500), wk =   0.0014648
        k(  107) = (  -0.0625000   0.3125000  -0.0625000), wk =   0.0014648
        k(  108) = (  -0.0937500   0.3437500  -0.0937500), wk =   0.0014648
        k(  109) = (  -0.1250000   0.3750000  -0.1250000), wk =   0.0014648
        k(  110) = (  -0.1562500   0.4062500  -0.1562500), wk =   0.0014648
        k(  111) = (  -0.1875000   0.4375000  -0.1875000), wk =   0.0014648
        k(  112) = (  -0.2187500   0.4687500  -0.2187500), wk =   0.0014648
        k(  113) = (  -0.2500000   0.5000000  -0.2500000), wk =   0.0014648
        k(  114) = (  -0.2812500   0.5312500  -0.2812500), wk =   0.0014648
        k(  115) = (  -0.3125000   0.5625000  -0.3125000), wk =   0.0014648
        k(  116) = (  -0.3437500   0.5937500  -0.3437500), wk =   0.0014648
        k(  117) = (   0.6250000  -0.3750000   0.6250000), wk =   0.0014648
        k(  118) = (   0.5937500  -0.3437500   0.5937500), wk =   0.0014648
        k(  119) = (   0.5625000  -0.3125000   0.5625000), wk =   0.0014648
        k(  120) = (   0.5312500  -0.2812500   0.5312500), wk =   0.0014648
        k(  121) = (   0.5000000  -0.2500000   0.5000000), wk =   0.0014648
        k(  122) = (   0.4687500  -0.2187500   0.4687500), wk =   0.0014648
        k(  123) = (   0.4375000  -0.1875000   0.4375000), wk =   0.0014648
        k(  124) = (   0.4062500  -0.1562500   0.4062500), wk =   0.0014648
        k(  125) = (   0.3750000  -0.1250000   0.3750000), wk =   0.0014648
        k(  126) = (   0.3437500  -0.0937500   0.3437500), wk =   0.0014648
        k(  127) = (   0.3125000  -0.0625000   0.3125000), wk =   0.0014648
        k(  128) = (   0.2812500  -0.0312500   0.2812500), wk =   0.0014648
        k(  129) = (   0.2500000   0.0000000   0.2500000), wk =   0.0007324
        k(  130) = (   0.0000000   0.3125000   0.0000000), wk =   0.0003662
        k(  131) = (  -0.0312500   0.3437500  -0.0312500), wk =   0.0014648
        k(  132) = (  -0.0625000   0.3750000  -0.0625000), wk =   0.0014648
        k(  133) = (  -0.0937500   0.4062500  -0.0937500), wk =   0.0014648
        k(  134) = (  -0.1250000   0.4375000  -0.1250000), wk =   0.0014648
        k(  135) = (  -0.1562500   0.4687500  -0.1562500), wk =   0.0014648
        k(  136) = (  -0.1875000   0.5000000  -0.1875000), wk =   0.0014648
        k(  137) = (  -0.2187500   0.5312500  -0.2187500), wk =   0.0014648
        k(  138) = (  -0.2500000   0.5625000  -0.2500000), wk =   0.0014648
        k(  139) = (  -0.2812500   0.5937500  -0.2812500), wk =   0.0014648
        k(  140) = (  -0.3125000   0.6250000  -0.3125000), wk =   0.0014648
        k(  141) = (   0.6562500  -0.3437500   0.6562500), wk =   0.0014648
        k(  142) = (   0.6250000  -0.3125000   0.6250000), wk =   0.0014648
        k(  143) = (   0.5937500  -0.2812500   0.5937500), wk =   0.0014648
        k(  144) = (   0.5625000  -0.2500000   0.5625000), wk =   0.0014648
        k(  145) = (   0.5312500  -0.2187500   0.5312500), wk =   0.0014648
        k(  146) = (   0.5000000  -0.1875000   0.5000000), wk =   0.0014648
        k(  147) = (   0.4687500  -0.1562500   0.4687500), wk =   0.0014648
        k(  148) = (   0.4375000  -0.1250000   0.4375000), wk =   0.0014648
        k(  149) = (   0.4062500  -0.0937500   0.4062500), wk =   0.0014648
        k(  150) = (   0.3750000  -0.0625000   0.3750000), wk =   0.0014648
        k(  151) = (   0.3437500  -0.0312500   0.3437500), wk =   0.0014648
        k(  152) = (   0.3125000   0.0000000   0.3125000), wk =   0.0007324
        k(  153) = (   0.0000000   0.3750000   0.0000000), wk =   0.0003662
        k(  154) = (  -0.0312500   0.4062500  -0.0312500), wk =   0.0014648
        k(  155) = (  -0.0625000   0.4375000  -0.0625000), wk =   0.0014648
        k(  156) = (  -0.0937500   0.4687500  -0.0937500), wk =   0.0014648
        k(  157) = (  -0.1250000   0.5000000  -0.1250000), wk =   0.0014648
        k(  158) = (  -0.1562500   0.5312500  -0.1562500), wk =   0.0014648
        k(  159) = (  -0.1875000   0.5625000  -0.1875000), wk =   0.0014648
        k(  160) = (  -0.2187500   0.5937500  -0.2187500), wk =   0.0014648
        k(  161) = (  -0.2500000   0.6250000  -0.2500000), wk =   0.0014648
        k(  162) = (  -0.2812500   0.6562500  -0.2812500), wk =   0.0014648
        k(  163) = (   0.6875000  -0.3125000   0.6875000), wk =   0.0014648
        k(  164) = (   0.6562500  -0.2812500   0.6562500), wk =   0.0014648
        k(  165) = (   0.6250000  -0.2500000   0.6250000), wk =   0.0014648
        k(  166) = (   0.5937500  -0.2187500   0.5937500), wk =   0.0014648
        k(  167) = (   0.5625000  -0.1875000   0.5625000), wk =   0.0014648
        k(  168) = (   0.5312500  -0.1562500   0.5312500), wk =   0.0014648
        k(  169) = (   0.5000000  -0.1250000   0.5000000), wk =   0.0014648
        k(  170) = (   0.4687500  -0.0937500   0.4687500), wk =   0.0014648
        k(  171) = (   0.4375000  -0.0625000   0.4375000), wk =   0.0014648
        k(  172) = (   0.4062500  -0.0312500   0.4062500), wk =   0.0014648
        k(  173) = (   0.3750000   0.0000000   0.3750000), wk =   0.0007324
        k(  174) = (   0.0000000   0.4375000   0.0000000), wk =   0.0003662
        k(  175) = (  -0.0312500   0.4687500  -0.0312500), wk =   0.0014648
        k(  176) = (  -0.0625000   0.5000000  -0.0625000), wk =   0.0014648
        k(  177) = (  -0.0937500   0.5312500  -0.0937500), wk =   0.0014648
        k(  178) = (  -0.1250000   0.5625000  -0.1250000), wk =   0.0014648
        k(  179) = (  -0.1562500   0.5937500  -0.1562500), wk =   0.0014648
        k(  180) = (  -0.1875000   0.6250000  -0.1875000), wk =   0.0014648
        k(  181) = (  -0.2187500   0.6562500  -0.2187500), wk =   0.0014648
        k(  182) = (  -0.2500000   0.6875000  -0.2500000), wk =   0.0014648
        k(  183) = (   0.7187500  -0.2812500   0.7187500), wk =   0.0014648
        k(  184) = (   0.6875000  -0.2500000   0.6875000), wk =   0.0014648
        k(  185) = (   0.6562500  -0.2187500   0.6562500), wk =   0.0014648
        k(  186) = (   0.6250000  -0.1875000   0.6250000), wk =   0.0014648
        k(  187) = (   0.5937500  -0.1562500   0.5937500), wk =   0.0014648
        k(  188) = (   0.5625000  -0.1250000   0.5625000), wk =   0.0014648
        k(  189) = (   0.5312500  -0.0937500   0.5312500), wk =   0.0014648
        k(  190) = (   0.5000000  -0.0625000   0.5000000), wk =   0.0014648
        k(  191) = (   0.4687500  -0.0312500   0.4687500), wk =   0.0014648
        k(  192) = (   0.4375000   0.0000000   0.4375000), wk =   0.0007324
        k(  193) = (   0.0000000   0.5000000   0.0000000), wk =   0.0003662
        k(  194) = (  -0.0312500   0.5312500  -0.0312500), wk =   0.0014648
        k(  195) = (  -0.0625000   0.5625000  -0.0625000), wk =   0.0014648
        k(  196) = (  -0.0937500   0.5937500  -0.0937500), wk =   0.0014648
        k(  197) = (  -0.1250000   0.6250000  -0.1250000), wk =   0.0014648
        k(  198) = (  -0.1562500   0.6562500  -0.1562500), wk =   0.0014648
        k(  199) = (  -0.1875000   0.6875000  -0.1875000), wk =   0.0014648
        k(  200) = (  -0.2187500   0.7187500  -0.2187500), wk =   0.0014648
        k(  201) = (   0.7500000  -0.2500000   0.7500000), wk =   0.0014648
        k(  202) = (   0.7187500  -0.2187500   0.7187500), wk =   0.0014648
        k(  203) = (   0.6875000  -0.1875000   0.6875000), wk =   0.0014648
        k(  204) = (   0.6562500  -0.1562500   0.6562500), wk =   0.0014648
        k(  205) = (   0.6250000  -0.1250000   0.6250000), wk =   0.0014648
        k(  206) = (   0.5937500  -0.0937500   0.5937500), wk =   0.0014648
        k(  207) = (   0.5625000  -0.0625000   0.5625000), wk =   0.0014648
        k(  208) = (   0.5312500  -0.0312500   0.5312500), wk =   0.0014648
        k(  209) = (   0.5000000   0.0000000   0.5000000), wk =   0.0007324
        k(  210) = (   0.0000000   0.5625000   0.0000000), wk =   0.0003662
        k(  211) = (  -0.0312500   0.5937500  -0.0312500), wk =   0.0014648
        k(  212) = (  -0.0625000   0.6250000  -0.0625000), wk =   0.0014648
        k(  213) = (  -0.0937500   0.6562500  -0.0937500), wk =   0.0014648
        k(  214) = (  -0.1250000   0.6875000  -0.1250000), wk =   0.0014648
        k(  215) = (  -0.1562500   0.7187500  -0.1562500), wk =   0.0014648
        k(  216) = (  -0.1875000   0.7500000  -0.1875000), wk =   0.0014648
        k(  217) = (   0.7812500  -0.2187500   0.7812500), wk =   0.0014648
        k(  218) = (   0.7500000  -0.1875000   0.7500000), wk =   0.0014648
        k(  219) = (   0.7187500  -0.1562500   0.7187500), wk =   0.0014648
        k(  220) = (   0.6875000  -0.1250000   0.6875000), wk =   0.0014648
        k(  221) = (   0.6562500  -0.0937500   0.6562500), wk =   0.0014648
        k(  222) = (   0.6250000  -0.0625000   0.6250000), wk =   0.0014648
        k(  223) = (   0.5937500  -0.0312500   0.5937500), wk =   0.0014648
        k(  224) = (   0.5625000   0.0000000   0.5625000), wk =   0.0007324
        k(  225) = (   0.0000000   0.6250000   0.0000000), wk =   0.0003662
        k(  226) = (  -0.0312500   0.6562500  -0.0312500), wk =   0.0014648
        k(  227) = (  -0.0625000   0.6875000  -0.0625000), wk =   0.0014648
        k(  228) = (  -0.0937500   0.7187500  -0.0937500), wk =   0.0014648
        k(  229) = (  -0.1250000   0.7500000  -0.1250000), wk =   0.0014648
        k(  230) = (  -0.1562500   0.7812500  -0.1562500), wk =   0.0014648
        k(  231) = (   0.8125000  -0.1875000   0.8125000), wk =   0.0014648
        k(  232) = (   0.7812500  -0.1562500   0.7812500), wk =   0.0014648
        k(  233) = (   0.7500000  -0.1250000   0.7500000), wk =   0.0014648
        k(  234) = (   0.7187500  -0.0937500   0.7187500), wk =   0.0014648
        k(  235) = (   0.6875000  -0.0625000   0.6875000), wk =   0.0014648
        k(  236) = (   0.6562500  -0.0312500   0.6562500), wk =   0.0014648
        k(  237) = (   0.6250000   0.0000000   0.6250000), wk =   0.0007324
        k(  238) = (   0.0000000   0.6875000   0.0000000), wk =   0.0003662
        k(  239) = (  -0.0312500   0.7187500  -0.0312500), wk =   0.0014648
        k(  240) = (  -0.0625000   0.7500000  -0.0625000), wk =   0.0014648
        k(  241) = (  -0.0937500   0.7812500  -0.0937500), wk =   0.0014648
        k(  242) = (  -0.1250000   0.8125000  -0.1250000), wk =   0.0014648
        k(  243) = (   0.8437500  -0.1562500   0.8437500), wk =   0.0014648
        k(  244) = (   0.8125000  -0.1250000   0.8125000), wk =   0.0014648
        k(  245) = (   0.7812500  -0.0937500   0.7812500), wk =   0.0014648
        k(  246) = (   0.7500000  -0.0625000   0.7500000), wk =   0.0014648
        k(  247) = (   0.7187500  -0.0312500   0.7187500), wk =   0.0014648
        k(  248) = (   0.6875000   0.0000000   0.6875000), wk =   0.0007324
        k(  249) = (   0.0000000   0.7500000   0.0000000), wk =   0.0003662
        k(  250) = (  -0.0312500   0.7812500  -0.0312500), wk =   0.0014648
        k(  251) = (  -0.0625000   0.8125000  -0.0625000), wk =   0.0014648
        k(  252) = (  -0.0937500   0.8437500  -0.0937500), wk =   0.0014648
        k(  253) = (   0.8750000  -0.1250000   0.8750000), wk =   0.0014648
        k(  254) = (   0.8437500  -0.0937500   0.8437500), wk =   0.0014648
        k(  255) = (   0.8125000  -0.0625000   0.8125000), wk =   0.0014648
        k(  256) = (   0.7812500  -0.0312500   0.7812500), wk =   0.0014648
        k(  257) = (   0.7500000   0.0000000   0.7500000), wk =   0.0007324
        k(  258) = (   0.0000000   0.8125000   0.0000000), wk =   0.0003662
        k(  259) = (  -0.0312500   0.8437500  -0.0312500), wk =   0.0014648
        k(  260) = (  -0.0625000   0.8750000  -0.0625000), wk =   0.0014648
        k(  261) = (   0.9062500  -0.0937500   0.9062500), wk =   0.0014648
        k(  262) = (   0.8750000  -0.0625000   0.8750000), wk =   0.0014648
        k(  263) = (   0.8437500  -0.0312500   0.8437500), wk =   0.0014648
        k(  264) = (   0.8125000   0.0000000   0.8125000), wk =   0.0007324
        k(  265) = (   0.0000000   0.8750000   0.0000000), wk =   0.0003662
        k(  266) = (  -0.0312500   0.9062500  -0.0312500), wk =   0.0014648
        k(  267) = (   0.9375000  -0.0625000   0.9375000), wk =   0.0014648
        k(  268) = (   0.9062500  -0.0312500   0.9062500), wk =   0.0014648
        k(  269) = (   0.8750000   0.0000000   0.8750000), wk =   0.0007324
        k(  270) = (   0.0000000   0.9375000   0.0000000), wk =   0.0003662
        k(  271) = (   0.9687500  -0.0312500   0.9687500), wk =   0.0014648
        k(  272) = (   0.9375000   0.0000000   0.9375000), wk =   0.0007324
        k(  273) = (   0.0000000  -1.0000000   0.0000000), wk =   0.0001831
        k(  274) = (  -0.0625000   0.1250000   0.0000000), wk =   0.0014648
        k(  275) = (  -0.0937500   0.1562500  -0.0312500), wk =   0.0029297
        k(  276) = (  -0.1250000   0.1875000  -0.0625000), wk =   0.0029297
        k(  277) = (  -0.1562500   0.2187500  -0.0937500), wk =   0.0029297
        k(  278) = (  -0.1875000   0.2500000  -0.1250000), wk =   0.0029297
        k(  279) = (  -0.2187500   0.2812500  -0.1562500), wk =   0.0029297
        k(  280) = (  -0.2500000   0.3125000  -0.1875000), wk =   0.0029297
        k(  281) = (  -0.2812500   0.3437500  -0.2187500), wk =   0.0029297
        k(  282) = (  -0.3125000   0.3750000  -0.2500000), wk =   0.0029297
        k(  283) = (  -0.3437500   0.4062500  -0.2812500), wk =   0.0029297
        k(  284) = (  -0.3750000   0.4375000  -0.3125000), wk =   0.0029297
        k(  285) = (  -0.4062500   0.4687500  -0.3437500), wk =   0.0029297
        k(  286) = (  -0.4375000   0.5000000  -0.3750000), wk =   0.0029297
        k(  287) = (   0.5312500  -0.4687500   0.5937500), wk =   0.0029297
        k(  288) = (   0.5000000  -0.4375000   0.5625000), wk =   0.0014648
        k(  289) = (  -0.0625000   0.1875000   0.0000000), wk =   0.0014648
        k(  290) = (  -0.0937500   0.2187500  -0.0312500), wk =   0.0029297
        k(  291) = (  -0.1250000   0.2500000  -0.0625000), wk =   0.0029297
        k(  292) = (  -0.1562500   0.2812500  -0.0937500), wk =   0.0029297
        k(  293) = (  -0.1875000   0.3125000  -0.1250000), wk =   0.0029297
        k(  294) = (  -0.2187500   0.3437500  -0.1562500), wk =   0.0029297
        k(  295) = (  -0.2500000   0.3750000  -0.1875000), wk =   0.0029297
        k(  296) = (  -0.2812500   0.4062500  -0.2187500), wk =   0.0029297
        k(  297) = (  -0.3125000   0.4375000  -0.2500000), wk =   0.0029297
        k(  298) = (  -0.3437500   0.4687500  -0.2812500), wk =   0.0029297
        k(  299) = (  -0.3750000   0.5000000  -0.3125000), wk =   0.0029297
        k(  300) = (  -0.4062500   0.5312500  -0.3437500), wk =   0.0029297
        k(  301) = (   0.5625000  -0.4375000   0.6250000), wk =   0.0029297
        k(  302) = (   0.5312500  -0.4062500   0.5937500), wk =   0.0029297
        k(  303) = (   0.5000000  -0.3750000   0.5625000), wk =   0.0029297
        k(  304) = (   0.4687500  -0.3437500   0.5312500), wk =   0.0029297
        k(  305) = (   0.4375000  -0.3125000   0.5000000), wk =   0.0029297
        k(  306) = (   0.4062500  -0.2812500   0.4687500), wk =   0.0029297
        k(  307) = (   0.3750000  -0.2500000   0.4375000), wk =   0.0029297
        k(  308) = (   0.3437500  -0.2187500   0.4062500), wk =   0.0029297
        k(  309) = (   0.3125000  -0.1875000   0.3750000), wk =   0.0029297
        k(  310) = (   0.2812500  -0.1562500   0.3437500), wk =   0.0029297
        k(  311) = (   0.2500000  -0.1250000   0.3125000), wk =   0.0029297
        k(  312) = (   0.2187500  -0.0937500   0.2812500), wk =   0.0029297
        k(  313) = (   0.1875000  -0.0625000   0.2500000), wk =   0.0029297
        k(  314) = (   0.1562500  -0.0312500   0.2187500), wk =   0.0029297
        k(  315) = (   0.1250000   0.0000000   0.1875000), wk =   0.0014648
        k(  316) = (  -0.0625000   0.2500000   0.0000000), wk =   0.0014648
        k(  317) = (  -0.0937500   0.2812500  -0.0312500), wk =   0.0029297
        k(  318) = (  -0.1250000   0.3125000  -0.0625000), wk =   0.0029297
        k(  319) = (  -0.1562500   0.3437500  -0.0937500), wk =   0.0029297
        k(  320) = (  -0.1875000   0.3750000  -0.1250000), wk =   0.0029297
        k(  321) = (  -0.2187500   0.4062500  -0.1562500), wk =   0.0029297
        k(  322) = (  -0.2500000   0.4375000  -0.1875000), wk =   0.0029297
        k(  323) = (  -0.2812500   0.4687500  -0.2187500), wk =   0.0029297
        k(  324) = (  -0.3125000   0.5000000  -0.2500000), wk =   0.0029297
        k(  325) = (  -0.3437500   0.5312500  -0.2812500), wk =   0.0029297
        k(  326) = (  -0.3750000   0.5625000  -0.3125000), wk =   0.0029297
        k(  327) = (   0.5937500  -0.4062500   0.6562500), wk =   0.0029297
        k(  328) = (   0.5625000  -0.3750000   0.6250000), wk =   0.0029297
        k(  329) = (   0.5312500  -0.3437500   0.5937500), wk =   0.0029297
        k(  330) = (   0.5000000  -0.3125000   0.5625000), wk =   0.0029297
        k(  331) = (   0.4687500  -0.2812500   0.5312500), wk =   0.0029297
        k(  332) = (   0.4375000  -0.2500000   0.5000000), wk =   0.0029297
        k(  333) = (   0.4062500  -0.2187500   0.4687500), wk =   0.0029297
        k(  334) = (   0.3750000  -0.1875000   0.4375000), wk =   0.0029297
        k(  335) = (   0.3437500  -0.1562500   0.4062500), wk =   0.0029297
        k(  336) = (   0.3125000  -0.1250000   0.3750000), wk =   0.0029297
        k(  337) = (   0.2812500  -0.0937500   0.3437500), wk =   0.0029297
        k(  338) = (   0.2500000  -0.0625000   0.3125000), wk =   0.0029297
        k(  339) = (   0.2187500  -0.0312500   0.2812500), wk =   0.0029297
        k(  340) = (   0.1875000   0.0000000   0.2500000), wk =   0.0014648
        k(  341) = (  -0.0625000   0.3125000   0.0000000), wk =   0.0014648
        k(  342) = (  -0.0937500   0.3437500  -0.0312500), wk =   0.0029297
        k(  343) = (  -0.1250000   0.3750000  -0.0625000), wk =   0.0029297
        k(  344) = (  -0.1562500   0.4062500  -0.0937500), wk =   0.0029297
        k(  345) = (  -0.1875000   0.4375000  -0.1250000), wk =   0.0029297
        k(  346) = (  -0.2187500   0.4687500  -0.1562500), wk =   0.0029297
        k(  347) = (  -0.2500000   0.5000000  -0.1875000), wk =   0.0029297
        k(  348) = (  -0.2812500   0.5312500  -0.2187500), wk =   0.0029297
        k(  349) = (  -0.3125000   0.5625000  -0.2500000), wk =   0.0029297
        k(  350) = (  -0.3437500   0.5937500  -0.2812500), wk =   0.0029297
        k(  351) = (   0.6250000  -0.3750000   0.6875000), wk =   0.0029297
        k(  352) = (   0.5937500  -0.3437500   0.6562500), wk =   0.0029297
        k(  353) = (   0.5625000  -0.3125000   0.6250000), wk =   0.0029297
        k(  354) = (   0.5312500  -0.2812500   0.5937500), wk =   0.0029297
        k(  355) = (   0.5000000  -0.2500000   0.5625000), wk =   0.0029297
        k(  356) = (   0.4687500  -0.2187500   0.5312500), wk =   0.0029297
        k(  357) = (   0.4375000  -0.1875000   0.5000000), wk =   0.0029297
        k(  358) = (   0.4062500  -0.1562500   0.4687500), wk =   0.0029297
        k(  359) = (   0.3750000  -0.1250000   0.4375000), wk =   0.0029297
        k(  360) = (   0.3437500  -0.0937500   0.4062500), wk =   0.0029297
        k(  361) = (   0.3125000  -0.0625000   0.3750000), wk =   0.0029297
        k(  362) = (   0.2812500  -0.0312500   0.3437500), wk =   0.0029297
        k(  363) = (   0.2500000   0.0000000   0.3125000), wk =   0.0014648
        k(  364) = (  -0.0625000   0.3750000   0.0000000), wk =   0.0014648
        k(  365) = (  -0.0937500   0.4062500  -0.0312500), wk =   0.0029297
        k(  366) = (  -0.1250000   0.4375000  -0.0625000), wk =   0.0029297
        k(  367) = (  -0.1562500   0.4687500  -0.0937500), wk =   0.0029297
        k(  368) = (  -0.1875000   0.5000000  -0.1250000), wk =   0.0029297
        k(  369) = (  -0.2187500   0.5312500  -0.1562500), wk =   0.0029297
        k(  370) = (  -0.2500000   0.5625000  -0.1875000), wk =   0.0029297
        k(  371) = (  -0.2812500   0.5937500  -0.2187500), wk =   0.0029297
        k(  372) = (  -0.3125000   0.6250000  -0.2500000), wk =   0.0029297
        k(  373) = (   0.6562500  -0.3437500   0.7187500), wk =   0.0029297
        k(  374) = (   0.6250000  -0.3125000   0.6875000), wk =   0.0029297
        k(  375) = (   0.5937500  -0.2812500   0.6562500), wk =   0.0029297
        k(  376) = (   0.5625000  -0.2500000   0.6250000), wk =   0.0029297
        k(  377) = (   0.5312500  -0.2187500   0.5937500), wk =   0.0029297
        k(  378) = (   0.5000000  -0.1875000   0.5625000), wk =   0.0029297
        k(  379) = (   0.4687500  -0.1562500   0.5312500), wk =   0.0029297
        k(  380) = (   0.4375000  -0.1250000   0.5000000), wk =   0.0029297
        k(  381) = (   0.4062500  -0.0937500   0.4687500), wk =   0.0029297
        k(  382) = (   0.3750000  -0.0625000   0.4375000), wk =   0.0029297
        k(  383) = (   0.3437500  -0.0312500   0.4062500), wk =   0.0029297
        k(  384) = (   0.3125000   0.0000000   0.3750000), wk =   0.0014648
        k(  385) = (  -0.0625000   0.4375000   0.0000000), wk =   0.0014648
        k(  386) = (  -0.0937500   0.4687500  -0.0312500), wk =   0.0029297
        k(  387) = (  -0.1250000   0.5000000  -0.0625000), wk =   0.0029297
        k(  388) = (  -0.1562500   0.5312500  -0.0937500), wk =   0.0029297
        k(  389) = (  -0.1875000   0.5625000  -0.1250000), wk =   0.0029297
        k(  390) = (  -0.2187500   0.5937500  -0.1562500), wk =   0.0029297
        k(  391) = (  -0.2500000   0.6250000  -0.1875000), wk =   0.0029297
        k(  392) = (  -0.2812500   0.6562500  -0.2187500), wk =   0.0029297
        k(  393) = (   0.6875000  -0.3125000   0.7500000), wk =   0.0029297
        k(  394) = (   0.6562500  -0.2812500   0.7187500), wk =   0.0029297
        k(  395) = (   0.6250000  -0.2500000   0.6875000), wk =   0.0029297
        k(  396) = (   0.5937500  -0.2187500   0.6562500), wk =   0.0029297
        k(  397) = (   0.5625000  -0.1875000   0.6250000), wk =   0.0029297
        k(  398) = (   0.5312500  -0.1562500   0.5937500), wk =   0.0029297
        k(  399) = (   0.5000000  -0.1250000   0.5625000), wk =   0.0029297
        k(  400) = (   0.4687500  -0.0937500   0.5312500), wk =   0.0029297
        k(  401) = (   0.4375000  -0.0625000   0.5000000), wk =   0.0029297
        k(  402) = (   0.4062500  -0.0312500   0.4687500), wk =   0.0029297
        k(  403) = (   0.3750000   0.0000000   0.4375000), wk =   0.0014648
        k(  404) = (  -0.0625000   0.5000000   0.0000000), wk =   0.0014648
        k(  405) = (  -0.0937500   0.5312500  -0.0312500), wk =   0.0029297
        k(  406) = (  -0.1250000   0.5625000  -0.0625000), wk =   0.0029297
        k(  407) = (  -0.1562500   0.5937500  -0.0937500), wk =   0.0029297
        k(  408) = (  -0.1875000   0.6250000  -0.1250000), wk =   0.0029297
        k(  409) = (  -0.2187500   0.6562500  -0.1562500), wk =   0.0029297
        k(  410) = (  -0.2500000   0.6875000  -0.1875000), wk =   0.0029297
        k(  411) = (   0.7187500  -0.2812500   0.7812500), wk =   0.0029297
        k(  412) = (   0.6875000  -0.2500000   0.7500000), wk =   0.0029297
        k(  413) = (   0.6562500  -0.2187500   0.7187500), wk =   0.0029297
        k(  414) = (   0.6250000  -0.1875000   0.6875000), wk =   0.0029297
        k(  415) = (   0.5937500  -0.1562500   0.6562500), wk =   0.0029297
        k(  416) = (   0.5625000  -0.1250000   0.6250000), wk =   0.0029297
        k(  417) = (   0.5312500  -0.0937500   0.5937500), wk =   0.0029297
        k(  418) = (   0.5000000  -0.0625000   0.5625000), wk =   0.0029297
        k(  419) = (   0.4687500  -0.0312500   0.5312500), wk =   0.0029297
        k(  420) = (   0.4375000   0.0000000   0.5000000), wk =   0.0014648
        k(  421) = (  -0.0625000   0.5625000   0.0000000), wk =   0.0014648
        k(  422) = (  -0.0937500   0.5937500  -0.0312500), wk =   0.0029297
        k(  423) = (  -0.1250000   0.6250000  -0.0625000), wk =   0.0029297
        k(  424) = (  -0.1562500   0.6562500  -0.0937500), wk =   0.0029297
        k(  425) = (  -0.1875000   0.6875000  -0.1250000), wk =   0.0029297
        k(  426) = (  -0.2187500   0.7187500  -0.1562500), wk =   0.0029297
        k(  427) = (   0.7500000  -0.2500000   0.8125000), wk =   0.0029297
        k(  428) = (   0.7187500  -0.2187500   0.7812500), wk =   0.0029297
        k(  429) = (   0.6875000  -0.1875000   0.7500000), wk =   0.0029297
        k(  430) = (   0.6562500  -0.1562500   0.7187500), wk =   0.0029297
        k(  431) = (   0.6250000  -0.1250000   0.6875000), wk =   0.0029297
        k(  432) = (   0.5937500  -0.0937500   0.6562500), wk =   0.0029297
        k(  433) = (   0.5625000  -0.0625000   0.6250000), wk =   0.0029297
        k(  434) = (   0.5312500  -0.0312500   0.5937500), wk =   0.0029297
        k(  435) = (   0.5000000   0.0000000   0.5625000), wk =   0.0014648
        k(  436) = (  -0.0625000   0.6250000   0.0000000), wk =   0.0014648
        k(  437) = (  -0.0937500   0.6562500  -0.0312500), wk =   0.0029297
        k(  438) = (  -0.1250000   0.6875000  -0.0625000), wk =   0.0029297
        k(  439) = (  -0.1562500   0.7187500  -0.0937500), wk =   0.0029297
        k(  440) = (  -0.1875000   0.7500000  -0.1250000), wk =   0.0029297
        k(  441) = (   0.7812500  -0.2187500   0.8437500), wk =   0.0029297
        k(  442) = (   0.7500000  -0.1875000   0.8125000), wk =   0.0029297
        k(  443) = (   0.7187500  -0.1562500   0.7812500), wk =   0.0029297
        k(  444) = (   0.6875000  -0.1250000   0.7500000), wk =   0.0029297
        k(  445) = (   0.6562500  -0.0937500   0.7187500), wk =   0.0029297
        k(  446) = (   0.6250000  -0.0625000   0.6875000), wk =   0.0029297
        k(  447) = (   0.5937500  -0.0312500   0.6562500), wk =   0.0029297
        k(  448) = (   0.5625000   0.0000000   0.6250000), wk =   0.0014648
        k(  449) = (  -0.0625000   0.6875000   0.0000000), wk =   0.0014648
        k(  450) = (  -0.0937500   0.7187500  -0.0312500), wk =   0.0029297
        k(  451) = (  -0.1250000   0.7500000  -0.0625000), wk =   0.0029297
        k(  452) = (  -0.1562500   0.7812500  -0.0937500), wk =   0.0029297
        k(  453) = (   0.8125000  -0.1875000   0.8750000), wk =   0.0029297
        k(  454) = (   0.7812500  -0.1562500   0.8437500), wk =   0.0029297
        k(  455) = (   0.7500000  -0.1250000   0.8125000), wk =   0.0029297
        k(  456) = (   0.7187500  -0.0937500   0.7812500), wk =   0.0029297
        k(  457) = (   0.6875000  -0.0625000   0.7500000), wk =   0.0029297
        k(  458) = (   0.6562500  -0.0312500   0.7187500), wk =   0.0029297
        k(  459) = (   0.6250000   0.0000000   0.6875000), wk =   0.0014648
        k(  460) = (  -0.0625000   0.7500000   0.0000000), wk =   0.0014648
        k(  461) = (  -0.0937500   0.7812500  -0.0312500), wk =   0.0029297
        k(  462) = (  -0.1250000   0.8125000  -0.0625000), wk =   0.0029297
        k(  463) = (   0.8437500  -0.1562500   0.9062500), wk =   0.0029297
        k(  464) = (   0.8125000  -0.1250000   0.8750000), wk =   0.0029297
        k(  465) = (   0.7812500  -0.0937500   0.8437500), wk =   0.0029297
        k(  466) = (   0.7500000  -0.0625000   0.8125000), wk =   0.0029297
        k(  467) = (   0.7187500  -0.0312500   0.7812500), wk =   0.0029297
        k(  468) = (   0.6875000   0.0000000   0.7500000), wk =   0.0014648
        k(  469) = (  -0.0625000   0.8125000   0.0000000), wk =   0.0014648
        k(  470) = (  -0.0937500   0.8437500  -0.0312500), wk =   0.0029297
        k(  471) = (   0.8750000  -0.1250000   0.9375000), wk =   0.0029297
        k(  472) = (   0.8437500  -0.0937500   0.9062500), wk =   0.0029297
        k(  473) = (   0.8125000  -0.0625000   0.8750000), wk =   0.0029297
        k(  474) = (   0.7812500  -0.0312500   0.8437500), wk =   0.0029297
        k(  475) = (   0.7500000   0.0000000   0.8125000), wk =   0.0014648
        k(  476) = (  -0.0625000   0.8750000   0.0000000), wk =   0.0014648
        k(  477) = (   0.9062500  -0.0937500   0.9687500), wk =   0.0029297
        k(  478) = (   0.8750000  -0.0625000   0.9375000), wk =   0.0029297
        k(  479) = (   0.8437500  -0.0312500   0.9062500), wk =   0.0029297
        k(  480) = (   0.8125000   0.0000000   0.8750000), wk =   0.0014648
        k(  481) = (   0.9375000  -0.0625000   1.0000000), wk =   0.0014648
        k(  482) = (   0.9062500  -0.0312500   0.9687500), wk =   0.0029297
        k(  483) = (   0.8750000   0.0000000   0.9375000), wk =   0.0014648
        k(  484) = (  -0.0625000  -1.0000000   0.0000000), wk =   0.0007324
        k(  485) = (  -0.1250000   0.2500000   0.0000000), wk =   0.0014648
        k(  486) = (  -0.1562500   0.2812500  -0.0312500), wk =   0.0029297
        k(  487) = (  -0.1875000   0.3125000  -0.0625000), wk =   0.0029297
        k(  488) = (  -0.2187500   0.3437500  -0.0937500), wk =   0.0029297
        k(  489) = (  -0.2500000   0.3750000  -0.1250000), wk =   0.0029297
        k(  490) = (  -0.2812500   0.4062500  -0.1562500), wk =   0.0029297
        k(  491) = (  -0.3125000   0.4375000  -0.1875000), wk =   0.0029297
        k(  492) = (  -0.3437500   0.4687500  -0.2187500), wk =   0.0029297
        k(  493) = (  -0.3750000   0.5000000  -0.2500000), wk =   0.0029297
        k(  494) = (  -0.4062500   0.5312500  -0.2812500), wk =   0.0029297
        k(  495) = (   0.5625000  -0.4375000   0.6875000), wk =   0.0029297
        k(  496) = (   0.5312500  -0.4062500   0.6562500), wk =   0.0029297
        k(  497) = (   0.5000000  -0.3750000   0.6250000), wk =   0.0014648
        k(  498) = (  -0.1250000   0.3125000   0.0000000), wk =   0.0014648
        k(  499) = (  -0.1562500   0.3437500  -0.0312500), wk =   0.0029297
        k(  500) = (  -0.1875000   0.3750000  -0.0625000), wk =   0.0029297
        k(  501) = (  -0.2187500   0.4062500  -0.0937500), wk =   0.0029297
        k(  502) = (  -0.2500000   0.4375000  -0.1250000), wk =   0.0029297
        k(  503) = (  -0.2812500   0.4687500  -0.1562500), wk =   0.0029297
        k(  504) = (  -0.3125000   0.5000000  -0.1875000), wk =   0.0029297
        k(  505) = (  -0.3437500   0.5312500  -0.2187500), wk =   0.0029297
        k(  506) = (  -0.3750000   0.5625000  -0.2500000), wk =   0.0029297
        k(  507) = (   0.5937500  -0.4062500   0.7187500), wk =   0.0029297
        k(  508) = (   0.5625000  -0.3750000   0.6875000), wk =   0.0029297
        k(  509) = (   0.5312500  -0.3437500   0.6562500), wk =   0.0029297
        k(  510) = (   0.5000000  -0.3125000   0.6250000), wk =   0.0029297
        k(  511) = (   0.4687500  -0.2812500   0.5937500), wk =   0.0029297
        k(  512) = (   0.4375000  -0.2500000   0.5625000), wk =   0.0029297
        k(  513) = (   0.4062500  -0.2187500   0.5312500), wk =   0.0029297
        k(  514) = (   0.3750000  -0.1875000   0.5000000), wk =   0.0029297
        k(  515) = (   0.3437500  -0.1562500   0.4687500), wk =   0.0029297
        k(  516) = (   0.3125000  -0.1250000   0.4375000), wk =   0.0029297
        k(  517) = (   0.2812500  -0.0937500   0.4062500), wk =   0.0029297
        k(  518) = (   0.2500000  -0.0625000   0.3750000), wk =   0.0029297
        k(  519) = (   0.2187500  -0.0312500   0.3437500), wk =   0.0029297
        k(  520) = (   0.1875000   0.0000000   0.3125000), wk =   0.0014648
        k(  521) = (  -0.1250000   0.3750000   0.0000000), wk =   0.0014648
        k(  522) = (  -0.1562500   0.4062500  -0.0312500), wk =   0.0029297
        k(  523) = (  -0.1875000   0.4375000  -0.0625000), wk =   0.0029297
        k(  524) = (  -0.2187500   0.4687500  -0.0937500), wk =   0.0029297
        k(  525) = (  -0.2500000   0.5000000  -0.1250000), wk =   0.0029297
        k(  526) = (  -0.2812500   0.5312500  -0.1562500), wk =   0.0029297
        k(  527) = (  -0.3125000   0.5625000  -0.1875000), wk =   0.0029297
        k(  528) = (  -0.3437500   0.5937500  -0.2187500), wk =   0.0029297
        k(  529) = (   0.6250000  -0.3750000   0.7500000), wk =   0.0029297
        k(  530) = (   0.5937500  -0.3437500   0.7187500), wk =   0.0029297
        k(  531) = (   0.5625000  -0.3125000   0.6875000), wk =   0.0029297
        k(  532) = (   0.5312500  -0.2812500   0.6562500), wk =   0.0029297
        k(  533) = (   0.5000000  -0.2500000   0.6250000), wk =   0.0029297
        k(  534) = (   0.4687500  -0.2187500   0.5937500), wk =   0.0029297
        k(  535) = (   0.4375000  -0.1875000   0.5625000), wk =   0.0029297
        k(  536) = (   0.4062500  -0.1562500   0.5312500), wk =   0.0029297
        k(  537) = (   0.3750000  -0.1250000   0.5000000), wk =   0.0029297
        k(  538) = (   0.3437500  -0.0937500   0.4687500), wk =   0.0029297
        k(  539) = (   0.3125000  -0.0625000   0.4375000), wk =   0.0029297
        k(  540) = (   0.2812500  -0.0312500   0.4062500), wk =   0.0029297
        k(  541) = (   0.2500000   0.0000000   0.3750000), wk =   0.0014648
        k(  542) = (  -0.1250000   0.4375000   0.0000000), wk =   0.0014648
        k(  543) = (  -0.1562500   0.4687500  -0.0312500), wk =   0.0029297
        k(  544) = (  -0.1875000   0.5000000  -0.0625000), wk =   0.0029297
        k(  545) = (  -0.2187500   0.5312500  -0.0937500), wk =   0.0029297
        k(  546) = (  -0.2500000   0.5625000  -0.1250000), wk =   0.0029297
        k(  547) = (  -0.2812500   0.5937500  -0.1562500), wk =   0.0029297
        k(  548) = (  -0.3125000   0.6250000  -0.1875000), wk =   0.0029297
        k(  549) = (   0.6562500  -0.3437500   0.7812500), wk =   0.0029297
        k(  550) = (   0.6250000  -0.3125000   0.7500000), wk =   0.0029297
        k(  551) = (   0.5937500  -0.2812500   0.7187500), wk =   0.0029297
        k(  552) = (   0.5625000  -0.2500000   0.6875000), wk =   0.0029297
        k(  553) = (   0.5312500  -0.2187500   0.6562500), wk =   0.0029297
        k(  554) = (   0.5000000  -0.1875000   0.6250000), wk =   0.0029297
        k(  555) = (   0.4687500  -0.1562500   0.5937500), wk =   0.0029297
        k(  556) = (   0.4375000  -0.1250000   0.5625000), wk =   0.0029297
        k(  557) = (   0.4062500  -0.0937500   0.5312500), wk =   0.0029297
        k(  558) = (   0.3750000  -0.0625000   0.5000000), wk =   0.0029297
        k(  559) = (   0.3437500  -0.0312500   0.4687500), wk =   0.0029297
        k(  560) = (   0.3125000   0.0000000   0.4375000), wk =   0.0014648
        k(  561) = (  -0.1250000   0.5000000   0.0000000), wk =   0.0014648
        k(  562) = (  -0.1562500   0.5312500  -0.0312500), wk =   0.0029297
        k(  563) = (  -0.1875000   0.5625000  -0.0625000), wk =   0.0029297
        k(  564) = (  -0.2187500   0.5937500  -0.0937500), wk =   0.0029297
        k(  565) = (  -0.2500000   0.6250000  -0.1250000), wk =   0.0029297
        k(  566) = (  -0.2812500   0.6562500  -0.1562500), wk =   0.0029297
        k(  567) = (   0.6875000  -0.3125000   0.8125000), wk =   0.0029297
        k(  568) = (   0.6562500  -0.2812500   0.7812500), wk =   0.0029297
        k(  569) = (   0.6250000  -0.2500000   0.7500000), wk =   0.0029297
        k(  570) = (   0.5937500  -0.2187500   0.7187500), wk =   0.0029297
        k(  571) = (   0.5625000  -0.1875000   0.6875000), wk =   0.0029297
        k(  572) = (   0.5312500  -0.1562500   0.6562500), wk =   0.0029297
        k(  573) = (   0.5000000  -0.1250000   0.6250000), wk =   0.0029297
        k(  574) = (   0.4687500  -0.0937500   0.5937500), wk =   0.0029297
        k(  575) = (   0.4375000  -0.0625000   0.5625000), wk =   0.0029297
        k(  576) = (   0.4062500  -0.0312500   0.5312500), wk =   0.0029297
        k(  577) = (   0.3750000   0.0000000   0.5000000), wk =   0.0014648
        k(  578) = (  -0.1250000   0.5625000   0.0000000), wk =   0.0014648
        k(  579) = (  -0.1562500   0.5937500  -0.0312500), wk =   0.0029297
        k(  580) = (  -0.1875000   0.6250000  -0.0625000), wk =   0.0029297
        k(  581) = (  -0.2187500   0.6562500  -0.0937500), wk =   0.0029297
        k(  582) = (  -0.2500000   0.6875000  -0.1250000), wk =   0.0029297
        k(  583) = (   0.7187500  -0.2812500   0.8437500), wk =   0.0029297
        k(  584) = (   0.6875000  -0.2500000   0.8125000), wk =   0.0029297
        k(  585) = (   0.6562500  -0.2187500   0.7812500), wk =   0.0029297
        k(  586) = (   0.6250000  -0.1875000   0.7500000), wk =   0.0029297
        k(  587) = (   0.5937500  -0.1562500   0.7187500), wk =   0.0029297
        k(  588) = (   0.5625000  -0.1250000   0.6875000), wk =   0.0029297
        k(  589) = (   0.5312500  -0.0937500   0.6562500), wk =   0.0029297
        k(  590) = (   0.5000000  -0.0625000   0.6250000), wk =   0.0029297
        k(  591) = (   0.4687500  -0.0312500   0.5937500), wk =   0.0029297
        k(  592) = (   0.4375000   0.0000000   0.5625000), wk =   0.0014648
        k(  593) = (  -0.1250000   0.6250000   0.0000000), wk =   0.0014648
        k(  594) = (  -0.1562500   0.6562500  -0.0312500), wk =   0.0029297
        k(  595) = (  -0.1875000   0.6875000  -0.0625000), wk =   0.0029297
        k(  596) = (  -0.2187500   0.7187500  -0.0937500), wk =   0.0029297
        k(  597) = (   0.7500000  -0.2500000   0.8750000), wk =   0.0029297
        k(  598) = (   0.7187500  -0.2187500   0.8437500), wk =   0.0029297
        k(  599) = (   0.6875000  -0.1875000   0.8125000), wk =   0.0029297
        k(  600) = (   0.6562500  -0.1562500   0.7812500), wk =   0.0029297
        k(  601) = (   0.6250000  -0.1250000   0.7500000), wk =   0.0029297
        k(  602) = (   0.5937500  -0.0937500   0.7187500), wk =   0.0029297
        k(  603) = (   0.5625000  -0.0625000   0.6875000), wk =   0.0029297
        k(  604) = (   0.5312500  -0.0312500   0.6562500), wk =   0.0029297
        k(  605) = (   0.5000000   0.0000000   0.6250000), wk =   0.0014648
        k(  606) = (  -0.1250000   0.6875000   0.0000000), wk =   0.0014648
        k(  607) = (  -0.1562500   0.7187500  -0.0312500), wk =   0.0029297
        k(  608) = (  -0.1875000   0.7500000  -0.0625000), wk =   0.0029297
        k(  609) = (   0.7812500  -0.2187500   0.9062500), wk =   0.0029297
        k(  610) = (   0.7500000  -0.1875000   0.8750000), wk =   0.0029297
        k(  611) = (   0.7187500  -0.1562500   0.8437500), wk =   0.0029297
        k(  612) = (   0.6875000  -0.1250000   0.8125000), wk =   0.0029297
        k(  613) = (   0.6562500  -0.0937500   0.7812500), wk =   0.0029297
        k(  614) = (   0.6250000  -0.0625000   0.7500000), wk =   0.0029297
        k(  615) = (   0.5937500  -0.0312500   0.7187500), wk =   0.0029297
        k(  616) = (   0.5625000   0.0000000   0.6875000), wk =   0.0014648
        k(  617) = (  -0.1250000   0.7500000   0.0000000), wk =   0.0014648
        k(  618) = (  -0.1562500   0.7812500  -0.0312500), wk =   0.0029297
        k(  619) = (   0.8125000  -0.1875000   0.9375000), wk =   0.0029297
        k(  620) = (   0.7812500  -0.1562500   0.9062500), wk =   0.0029297
        k(  621) = (   0.7500000  -0.1250000   0.8750000), wk =   0.0029297
        k(  622) = (   0.7187500  -0.0937500   0.8437500), wk =   0.0029297
        k(  623) = (   0.6875000  -0.0625000   0.8125000), wk =   0.0029297
        k(  624) = (   0.6562500  -0.0312500   0.7812500), wk =   0.0029297
        k(  625) = (   0.6250000   0.0000000   0.7500000), wk =   0.0014648
        k(  626) = (  -0.1250000   0.8125000   0.0000000), wk =   0.0014648
        k(  627) = (   0.8437500  -0.1562500   0.9687500), wk =   0.0029297
        k(  628) = (   0.8125000  -0.1250000   0.9375000), wk =   0.0029297
        k(  629) = (   0.7812500  -0.0937500   0.9062500), wk =   0.0029297
        k(  630) = (   0.7500000  -0.0625000   0.8750000), wk =   0.0029297
        k(  631) = (   0.7187500  -0.0312500   0.8437500), wk =   0.0029297
        k(  632) = (   0.6875000   0.0000000   0.8125000), wk =   0.0014648
        k(  633) = (   0.8750000  -0.1250000   1.0000000), wk =   0.0014648
        k(  634) = (   0.8437500  -0.0937500   0.9687500), wk =   0.0029297
        k(  635) = (   0.8125000  -0.0625000   0.9375000), wk =   0.0029297
        k(  636) = (   0.7812500  -0.0312500   0.9062500), wk =   0.0029297
        k(  637) = (   0.7500000   0.0000000   0.8750000), wk =   0.0014648
        k(  638) = (   0.8750000  -0.0625000   1.0000000), wk =   0.0014648
        k(  639) = (   0.8437500  -0.0312500   0.9687500), wk =   0.0029297
        k(  640) = (   0.8125000   0.0000000   0.9375000), wk =   0.0014648
        k(  641) = (  -0.1250000  -1.0000000   0.0000000), wk =   0.0007324
        k(  642) = (  -0.1875000   0.3750000   0.0000000), wk =   0.0014648
        k(  643) = (  -0.2187500   0.4062500  -0.0312500), wk =   0.0029297
        k(  644) = (  -0.2500000   0.4375000  -0.0625000), wk =   0.0029297
        k(  645) = (  -0.2812500   0.4687500  -0.0937500), wk =   0.0029297
        k(  646) = (  -0.3125000   0.5000000  -0.1250000), wk =   0.0029297
        k(  647) = (  -0.3437500   0.5312500  -0.1562500), wk =   0.0029297
        k(  648) = (  -0.3750000   0.5625000  -0.1875000), wk =   0.0029297
        k(  649) = (   0.5937500  -0.4062500   0.7812500), wk =   0.0029297
        k(  650) = (   0.5625000  -0.3750000   0.7500000), wk =   0.0029297
        k(  651) = (   0.5312500  -0.3437500   0.7187500), wk =   0.0029297
        k(  652) = (   0.5000000  -0.3125000   0.6875000), wk =   0.0014648
        k(  653) = (  -0.1875000   0.4375000   0.0000000), wk =   0.0014648
        k(  654) = (  -0.2187500   0.4687500  -0.0312500), wk =   0.0029297
        k(  655) = (  -0.2500000   0.5000000  -0.0625000), wk =   0.0029297
        k(  656) = (  -0.2812500   0.5312500  -0.0937500), wk =   0.0029297
        k(  657) = (  -0.3125000   0.5625000  -0.1250000), wk =   0.0029297
        k(  658) = (  -0.3437500   0.5937500  -0.1562500), wk =   0.0029297
        k(  659) = (   0.6250000  -0.3750000   0.8125000), wk =   0.0029297
        k(  660) = (   0.5937500  -0.3437500   0.7812500), wk =   0.0029297
        k(  661) = (   0.5625000  -0.3125000   0.7500000), wk =   0.0029297
        k(  662) = (   0.5312500  -0.2812500   0.7187500), wk =   0.0029297
        k(  663) = (   0.5000000  -0.2500000   0.6875000), wk =   0.0029297
        k(  664) = (   0.4687500  -0.2187500   0.6562500), wk =   0.0029297
        k(  665) = (   0.4375000  -0.1875000   0.6250000), wk =   0.0029297
        k(  666) = (   0.4062500  -0.1562500   0.5937500), wk =   0.0029297
        k(  667) = (   0.3750000  -0.1250000   0.5625000), wk =   0.0029297
        k(  668) = (   0.3437500  -0.0937500   0.5312500), wk =   0.0029297
        k(  669) = (   0.3125000  -0.0625000   0.5000000), wk =   0.0029297
        k(  670) = (   0.2812500  -0.0312500   0.4687500), wk =   0.0029297
        k(  671) = (   0.2500000   0.0000000   0.4375000), wk =   0.0014648
        k(  672) = (  -0.1875000   0.5000000   0.0000000), wk =   0.0014648
        k(  673) = (  -0.2187500   0.5312500  -0.0312500), wk =   0.0029297
        k(  674) = (  -0.2500000   0.5625000  -0.0625000), wk =   0.0029297
        k(  675) = (  -0.2812500   0.5937500  -0.0937500), wk =   0.0029297
        k(  676) = (  -0.3125000   0.6250000  -0.1250000), wk =   0.0029297
        k(  677) = (   0.6562500  -0.3437500   0.8437500), wk =   0.0029297
        k(  678) = (   0.6250000  -0.3125000   0.8125000), wk =   0.0029297
        k(  679) = (   0.5937500  -0.2812500   0.7812500), wk =   0.0029297
        k(  680) = (   0.5625000  -0.2500000   0.7500000), wk =   0.0029297
        k(  681) = (   0.5312500  -0.2187500   0.7187500), wk =   0.0029297
        k(  682) = (   0.5000000  -0.1875000   0.6875000), wk =   0.0029297
        k(  683) = (   0.4687500  -0.1562500   0.6562500), wk =   0.0029297
        k(  684) = (   0.4375000  -0.1250000   0.6250000), wk =   0.0029297
        k(  685) = (   0.4062500  -0.0937500   0.5937500), wk =   0.0029297
        k(  686) = (   0.3750000  -0.0625000   0.5625000), wk =   0.0029297
        k(  687) = (   0.3437500  -0.0312500   0.5312500), wk =   0.0029297
        k(  688) = (   0.3125000   0.0000000   0.5000000), wk =   0.0014648
        k(  689) = (  -0.1875000   0.5625000   0.0000000), wk =   0.0014648
        k(  690) = (  -0.2187500   0.5937500  -0.0312500), wk =   0.0029297
        k(  691) = (  -0.2500000   0.6250000  -0.0625000), wk =   0.0029297
        k(  692) = (  -0.2812500   0.6562500  -0.0937500), wk =   0.0029297
        k(  693) = (   0.6875000  -0.3125000   0.8750000), wk =   0.0029297
        k(  694) = (   0.6562500  -0.2812500   0.8437500), wk =   0.0029297
        k(  695) = (   0.6250000  -0.2500000   0.8125000), wk =   0.0029297
        k(  696) = (   0.5937500  -0.2187500   0.7812500), wk =   0.0029297
        k(  697) = (   0.5625000  -0.1875000   0.7500000), wk =   0.0029297
        k(  698) = (   0.5312500  -0.1562500   0.7187500), wk =   0.0029297
        k(  699) = (   0.5000000  -0.1250000   0.6875000), wk =   0.0029297
        k(  700) = (   0.4687500  -0.0937500   0.6562500), wk =   0.0029297
        k(  701) = (   0.4375000  -0.0625000   0.6250000), wk =   0.0029297
        k(  702) = (   0.4062500  -0.0312500   0.5937500), wk =   0.0029297
        k(  703) = (   0.3750000   0.0000000   0.5625000), wk =   0.0014648
        k(  704) = (  -0.1875000   0.6250000   0.0000000), wk =   0.0014648
        k(  705) = (  -0.2187500   0.6562500  -0.0312500), wk =   0.0029297
        k(  706) = (  -0.2500000   0.6875000  -0.0625000), wk =   0.0029297
        k(  707) = (   0.7187500  -0.2812500   0.9062500), wk =   0.0029297
        k(  708) = (   0.6875000  -0.2500000   0.8750000), wk =   0.0029297
        k(  709) = (   0.6562500  -0.2187500   0.8437500), wk =   0.0029297
        k(  710) = (   0.6250000  -0.1875000   0.8125000), wk =   0.0029297
        k(  711) = (   0.5937500  -0.1562500   0.7812500), wk =   0.0029297
        k(  712) = (   0.5625000  -0.1250000   0.7500000), wk =   0.0029297
        k(  713) = (   0.5312500  -0.0937500   0.7187500), wk =   0.0029297
        k(  714) = (   0.5000000  -0.0625000   0.6875000), wk =   0.0029297
        k(  715) = (   0.4687500  -0.0312500   0.6562500), wk =   0.0029297
        k(  716) = (   0.4375000   0.0000000   0.6250000), wk =   0.0014648
        k(  717) = (  -0.1875000   0.6875000   0.0000000), wk =   0.0014648
        k(  718) = (  -0.2187500   0.7187500  -0.0312500), wk =   0.0029297
        k(  719) = (   0.7500000  -0.2500000   0.9375000), wk =   0.0029297
        k(  720) = (   0.7187500  -0.2187500   0.9062500), wk =   0.0029297
        k(  721) = (   0.6875000  -0.1875000   0.8750000), wk =   0.0029297
        k(  722) = (   0.6562500  -0.1562500   0.8437500), wk =   0.0029297
        k(  723) = (   0.6250000  -0.1250000   0.8125000), wk =   0.0029297
        k(  724) = (   0.5937500  -0.0937500   0.7812500), wk =   0.0029297
        k(  725) = (   0.5625000  -0.0625000   0.7500000), wk =   0.0029297
        k(  726) = (   0.5312500  -0.0312500   0.7187500), wk =   0.0029297
        k(  727) = (   0.5000000   0.0000000   0.6875000), wk =   0.0014648
        k(  728) = (  -0.1875000   0.7500000   0.0000000), wk =   0.0014648
        k(  729) = (   0.7812500  -0.2187500   0.9687500), wk =   0.0029297
        k(  730) = (   0.7500000  -0.1875000   0.9375000), wk =   0.0029297
        k(  731) = (   0.7187500  -0.1562500   0.9062500), wk =   0.0029297
        k(  732) = (   0.6875000  -0.1250000   0.8750000), wk =   0.0029297
        k(  733) = (   0.6562500  -0.0937500   0.8437500), wk =   0.0029297
        k(  734) = (   0.6250000  -0.0625000   0.8125000), wk =   0.0029297
        k(  735) = (   0.5937500  -0.0312500   0.7812500), wk =   0.0029297
        k(  736) = (   0.5625000   0.0000000   0.7500000), wk =   0.0014648
        k(  737) = (   0.8125000  -0.1875000   1.0000000), wk =   0.0014648
        k(  738) = (   0.7812500  -0.1562500   0.9687500), wk =   0.0029297
        k(  739) = (   0.7500000  -0.1250000   0.9375000), wk =   0.0029297
        k(  740) = (   0.7187500  -0.0937500   0.9062500), wk =   0.0029297
        k(  741) = (   0.6875000  -0.0625000   0.8750000), wk =   0.0029297
        k(  742) = (   0.6562500  -0.0312500   0.8437500), wk =   0.0029297
        k(  743) = (   0.6250000   0.0000000   0.8125000), wk =   0.0014648
        k(  744) = (   0.8125000  -0.1250000   1.0000000), wk =   0.0014648
        k(  745) = (   0.7812500  -0.0937500   0.9687500), wk =   0.0029297
        k(  746) = (   0.7500000  -0.0625000   0.9375000), wk =   0.0029297
        k(  747) = (   0.7187500  -0.0312500   0.9062500), wk =   0.0029297
        k(  748) = (   0.6875000   0.0000000   0.8750000), wk =   0.0014648
        k(  749) = (   0.8125000  -0.0625000   1.0000000), wk =   0.0014648
        k(  750) = (   0.7812500  -0.0312500   0.9687500), wk =   0.0029297
        k(  751) = (   0.7500000   0.0000000   0.9375000), wk =   0.0014648
        k(  752) = (  -0.1875000  -1.0000000   0.0000000), wk =   0.0007324
        k(  753) = (  -0.2500000   0.5000000   0.0000000), wk =   0.0014648
        k(  754) = (  -0.2812500   0.5312500  -0.0312500), wk =   0.0029297
        k(  755) = (  -0.3125000   0.5625000  -0.0625000), wk =   0.0029297
        k(  756) = (  -0.3437500   0.5937500  -0.0937500), wk =   0.0029297
        k(  757) = (   0.6250000  -0.3750000   0.8750000), wk =   0.0029297
        k(  758) = (   0.5937500  -0.3437500   0.8437500), wk =   0.0029297
        k(  759) = (   0.5625000  -0.3125000   0.8125000), wk =   0.0029297
        k(  760) = (   0.5312500  -0.2812500   0.7812500), wk =   0.0029297
        k(  761) = (   0.5000000  -0.2500000   0.7500000), wk =   0.0014648
        k(  762) = (  -0.2500000   0.5625000   0.0000000), wk =   0.0014648
        k(  763) = (  -0.2812500   0.5937500  -0.0312500), wk =   0.0029297
        k(  764) = (  -0.3125000   0.6250000  -0.0625000), wk =   0.0029297
        k(  765) = (   0.6562500  -0.3437500   0.9062500), wk =   0.0029297
        k(  766) = (   0.6250000  -0.3125000   0.8750000), wk =   0.0029297
        k(  767) = (   0.5937500  -0.2812500   0.8437500), wk =   0.0029297
        k(  768) = (   0.5625000  -0.2500000   0.8125000), wk =   0.0029297
        k(  769) = (   0.5312500  -0.2187500   0.7812500), wk =   0.0029297
        k(  770) = (   0.5000000  -0.1875000   0.7500000), wk =   0.0029297
        k(  771) = (   0.4687500  -0.1562500   0.7187500), wk =   0.0029297
        k(  772) = (   0.4375000  -0.1250000   0.6875000), wk =   0.0029297
        k(  773) = (   0.4062500  -0.0937500   0.6562500), wk =   0.0029297
        k(  774) = (   0.3750000  -0.0625000   0.6250000), wk =   0.0029297
        k(  775) = (   0.3437500  -0.0312500   0.5937500), wk =   0.0029297
        k(  776) = (   0.3125000   0.0000000   0.5625000), wk =   0.0014648
        k(  777) = (  -0.2500000   0.6250000   0.0000000), wk =   0.0014648
        k(  778) = (  -0.2812500   0.6562500  -0.0312500), wk =   0.0029297
        k(  779) = (   0.6875000  -0.3125000   0.9375000), wk =   0.0029297
        k(  780) = (   0.6562500  -0.2812500   0.9062500), wk =   0.0029297
        k(  781) = (   0.6250000  -0.2500000   0.8750000), wk =   0.0029297
        k(  782) = (   0.5937500  -0.2187500   0.8437500), wk =   0.0029297
        k(  783) = (   0.5625000  -0.1875000   0.8125000), wk =   0.0029297
        k(  784) = (   0.5312500  -0.1562500   0.7812500), wk =   0.0029297
        k(  785) = (   0.5000000  -0.1250000   0.7500000), wk =   0.0029297
        k(  786) = (   0.4687500  -0.0937500   0.7187500), wk =   0.0029297
        k(  787) = (   0.4375000  -0.0625000   0.6875000), wk =   0.0029297
        k(  788) = (   0.4062500  -0.0312500   0.6562500), wk =   0.0029297
        k(  789) = (   0.3750000   0.0000000   0.6250000), wk =   0.0014648
        k(  790) = (  -0.2500000   0.6875000   0.0000000), wk =   0.0014648
        k(  791) = (   0.7187500  -0.2812500   0.9687500), wk =   0.0029297
        k(  792) = (   0.6875000  -0.2500000   0.9375000), wk =   0.0029297
        k(  793) = (   0.6562500  -0.2187500   0.9062500), wk =   0.0029297
        k(  794) = (   0.6250000  -0.1875000   0.8750000), wk =   0.0029297
        k(  795) = (   0.5937500  -0.1562500   0.8437500), wk =   0.0029297
        k(  796) = (   0.5625000  -0.1250000   0.8125000), wk =   0.0029297
        k(  797) = (   0.5312500  -0.0937500   0.7812500), wk =   0.0029297
        k(  798) = (   0.5000000  -0.0625000   0.7500000), wk =   0.0029297
        k(  799) = (   0.4687500  -0.0312500   0.7187500), wk =   0.0029297
        k(  800) = (   0.4375000   0.0000000   0.6875000), wk =   0.0014648
        k(  801) = (   0.7500000  -0.2500000   1.0000000), wk =   0.0014648
        k(  802) = (   0.7187500  -0.2187500   0.9687500), wk =   0.0029297
        k(  803) = (   0.6875000  -0.1875000   0.9375000), wk =   0.0029297
        k(  804) = (   0.6562500  -0.1562500   0.9062500), wk =   0.0029297
        k(  805) = (   0.6250000  -0.1250000   0.8750000), wk =   0.0029297
        k(  806) = (   0.5937500  -0.0937500   0.8437500), wk =   0.0029297
        k(  807) = (   0.5625000  -0.0625000   0.8125000), wk =   0.0029297
        k(  808) = (   0.5312500  -0.0312500   0.7812500), wk =   0.0029297
        k(  809) = (   0.5000000   0.0000000   0.7500000), wk =   0.0014648
        k(  810) = (   0.7500000  -0.1875000   1.0000000), wk =   0.0014648
        k(  811) = (   0.7187500  -0.1562500   0.9687500), wk =   0.0029297
        k(  812) = (   0.6875000  -0.1250000   0.9375000), wk =   0.0029297
        k(  813) = (   0.6562500  -0.0937500   0.9062500), wk =   0.0029297
        k(  814) = (   0.6250000  -0.0625000   0.8750000), wk =   0.0029297
        k(  815) = (   0.5937500  -0.0312500   0.8437500), wk =   0.0029297
        k(  816) = (   0.5625000   0.0000000   0.8125000), wk =   0.0014648
        k(  817) = (   0.7500000  -0.1250000   1.0000000), wk =   0.0014648
        k(  818) = (   0.7187500  -0.0937500   0.9687500), wk =   0.0029297
        k(  819) = (   0.6875000  -0.0625000   0.9375000), wk =   0.0029297
        k(  820) = (   0.6562500  -0.0312500   0.9062500), wk =   0.0029297
        k(  821) = (   0.6250000   0.0000000   0.8750000), wk =   0.0014648
        k(  822) = (   0.7500000  -0.0625000   1.0000000), wk =   0.0014648
        k(  823) = (   0.7187500  -0.0312500   0.9687500), wk =   0.0029297
        k(  824) = (   0.6875000   0.0000000   0.9375000), wk =   0.0014648
        k(  825) = (  -0.2500000  -1.0000000   0.0000000), wk =   0.0007324
        k(  826) = (  -0.3125000   0.6250000   0.0000000), wk =   0.0014648
        k(  827) = (   0.6562500  -0.3437500   0.9687500), wk =   0.0029297
        k(  828) = (   0.6250000  -0.3125000   0.9375000), wk =   0.0029297
        k(  829) = (   0.5937500  -0.2812500   0.9062500), wk =   0.0029297
        k(  830) = (   0.5625000  -0.2500000   0.8750000), wk =   0.0029297
        k(  831) = (   0.5312500  -0.2187500   0.8437500), wk =   0.0029297
        k(  832) = (   0.5000000  -0.1875000   0.8125000), wk =   0.0014648
        k(  833) = (   0.6875000  -0.3125000   1.0000000), wk =   0.0014648
        k(  834) = (   0.6562500  -0.2812500   0.9687500), wk =   0.0029297
        k(  835) = (   0.6250000  -0.2500000   0.9375000), wk =   0.0029297
        k(  836) = (   0.5937500  -0.2187500   0.9062500), wk =   0.0029297
        k(  837) = (   0.5625000  -0.1875000   0.8750000), wk =   0.0029297
        k(  838) = (   0.5312500  -0.1562500   0.8437500), wk =   0.0029297
        k(  839) = (   0.5000000  -0.1250000   0.8125000), wk =   0.0029297
        k(  840) = (   0.4687500  -0.0937500   0.7812500), wk =   0.0029297
        k(  841) = (   0.4375000  -0.0625000   0.7500000), wk =   0.0029297
        k(  842) = (   0.4062500  -0.0312500   0.7187500), wk =   0.0029297
        k(  843) = (   0.3750000   0.0000000   0.6875000), wk =   0.0014648
        k(  844) = (   0.6875000  -0.2500000   1.0000000), wk =   0.0014648
        k(  845) = (   0.6562500  -0.2187500   0.9687500), wk =   0.0029297
        k(  846) = (   0.6250000  -0.1875000   0.9375000), wk =   0.0029297
        k(  847) = (   0.5937500  -0.1562500   0.9062500), wk =   0.0029297
        k(  848) = (   0.5625000  -0.1250000   0.8750000), wk =   0.0029297
        k(  849) = (   0.5312500  -0.0937500   0.8437500), wk =   0.0029297
        k(  850) = (   0.5000000  -0.0625000   0.8125000), wk =   0.0029297
        k(  851) = (   0.4687500  -0.0312500   0.7812500), wk =   0.0029297
        k(  852) = (   0.4375000   0.0000000   0.7500000), wk =   0.0014648
        k(  853) = (   0.6875000  -0.1875000   1.0000000), wk =   0.0014648
        k(  854) = (   0.6562500  -0.1562500   0.9687500), wk =   0.0029297
        k(  855) = (   0.6250000  -0.1250000   0.9375000), wk =   0.0029297
        k(  856) = (   0.5937500  -0.0937500   0.9062500), wk =   0.0029297
        k(  857) = (   0.5625000  -0.0625000   0.8750000), wk =   0.0029297
        k(  858) = (   0.5312500  -0.0312500   0.8437500), wk =   0.0029297
        k(  859) = (   0.5000000   0.0000000   0.8125000), wk =   0.0014648
        k(  860) = (   0.6875000  -0.1250000   1.0000000), wk =   0.0014648
[...]
     0.0000   0.0000

          k = 0.5625-0.1875 0.8750 (   259 PWs)   bands (ev):

    -2.4536  -0.4709   2.1888   3.3963   9.3808  10.2982  11.5738  13.6518
    14.2042  17.4293

     occupation numbers 
     1.0000   1.0000   1.0000   1.0000   0.0000   0.0000   0.0000   0.0000
     0.0000   0.0000

          k = 0.5312-0.1562 0.8438 (   259 PWs)   bands (ev):

    -2.3513  -0.5862   2.1407   3.3872   9.4641  10.2055  12.1381  13.0243
    14.2047  17.6284

     occupation numbers 
     1.0000   1.0000   1.0000   1.0000   0.0000   0.0000   0.0000   0.0000
     0.0000   0.0000

          k = 0.5000-0.1250 0.8125 (   259 PWs)   bands (ev):

    -2.3792  -0.5541   2.1194   3.4182   9.5599  10.1205  12.2414  12.9261
    14.1881  17.2355

     occupation numbers 
     1.0000   1.0000   1.0000   1.0000   0.0000   0.0000   0.0000   0.0000
     0.0000   0.0000

          k = 0.4688-0.0938 0.7812 (   256 PWs)   bands (ev):

    -2.5221  -0.3852   2.1294   3.4867   9.6690  10.0491  11.7022  13.5401
    14.1530  16.7112

     occupation numbers 
     1.0000   1.0000   1.0000   1.0000   0.0000   0.0000   0.0000   0.0000
     0.0000   0.0000

          k = 0.4375-0.0625 0.7500 (   258 PWs)   bands (ev):

    -2.7352  -0.1416   2.1750   3.5877   9.7725   9.9849  11.1774  14.0424
    14.2563  16.2077

     occupation numbers 
     1.0000   1.0000   1.0000   1.0000   0.0000   0.0000   0.0000   0.0000
     0.0000   0.0000

          k = 0.4062-0.0312 0.7188 (   257 PWs)   bands (ev):

    -2.9729   0.1356   2.2674   3.7171   9.7746   9.9882  10.7572  13.9160
    14.9359  15.7936

     occupation numbers 
     1.0000   1.0000   1.0000   1.0000   0.0000   0.0000   0.0000   0.0000
     0.0000   0.0000

          k = 0.3750 0.0000 0.6875 (   260 PWs)   bands (ev):

    -3.2194   0.4118   2.4155   3.8671   9.5670  10.0754  10.5302  13.6640
    15.5082  15.6290

     occupation numbers 
     1.0000   1.0000   1.0000   1.0000   0.0000   0.0000   0.0000   0.0000
     0.0000   0.0000

          k = 0.6875-0.2500 1.0000 (   253 PWs)   bands (ev):

    -3.0037   0.2259   2.5746   3.4575   8.8358   9.4773  11.3993  14.4001
    15.8387  16.4629

     occupation numbers 
     1.0000   1.0000   1.0000   1.0000   0.0000   0.0000   0.0000   0.0000
     0.0000   0.0000

          k = 0.6562-0.2188 0.9688 (   253 PWs)   bands (ev):

    -2.7600  -0.0406   2.4139   3.3194   9.0426   9.7457  11.2639  14.6495
    15.1258  16.7505

     occupation numbers 
     1.0000   1.0000   1.0000   1.0000   0.0000   0.0000   0.0000   0.0000
     0.0000   0.0000

          k = 0.6250-0.1875 0.9375 (   255 PWs)   bands (ev):

    -2.5215  -0.3002   2.2753   3.2236   9.1432  10.1708  11.1541  14.4073
    14.7916  17.1557

     occupation numbers 
     1.0000   1.0000   1.0000   1.0000   0.0000   0.0000   0.0000   0.0000
     0.0000   0.0000

          k = 0.5938-0.1562 0.9062 (   258 PWs)   bands (ev):

    -2.3148  -0.5249   2.1589   3.1751   9.2177  10.5748  11.1659  13.7151
    14.8439  17.5804

     occupation numbers 
     1.0000   1.0000   1.0000   1.0000   0.0000   0.0000   0.0000   0.0000
     0.0000   0.0000

          k = 0.5625-0.1250 0.8750 (   261 PWs)   bands (ev):

    -2.1806  -0.6700   2.0690   3.1735   9.3028  10.6837  11.5227  13.0532
    14.8493  17.6614

     occupation numbers 
     1.0000   1.0000   1.0000   1.0000   0.0000   0.0000   0.0000   0.0000
     0.0000   0.0000

          k = 0.5312-0.0938 0.8438 (   261 PWs)   bands (ev):

    -2.1732  -0.6730   2.0113   3.2157   9.4049  10.6281  12.0058  12.5137
    14.8179  17.2342

     occupation numbers 
     1.0000   1.0000   1.0000   1.0000   0.0000   0.0000   0.0000   0.0000
     0.0000   0.0000

          k = 0.5000-0.0625 0.8125 (   259 PWs)   bands (ev):

    -2.2947  -0.5412   1.9934   3.2967   9.5236  10.5424  11.7298  12.8458
    14.7420  16.7292

     occupation numbers 
     1.0000   1.0000   1.0000   1.0000   0.0000   0.0000   0.0000   0.0000
     0.0000   0.0000

          k = 0.4688-0.0312 0.7812 (   260 PWs)   bands (ev):

    -2.4993  -0.3297   2.0236   3.4107   9.6621  10.4152  11.2361  13.5021
    14.5939  16.2809

     occupation numbers 
     1.0000   1.0000   1.0000   1.0000   0.0000   0.0000   0.0000   0.0000
     0.0000   0.0000

          k = 0.4375 0.0000 0.7500 (   260 PWs)   bands (ev):

    -2.7341  -0.0934   2.1124   3.5524   9.8096  10.1752  10.8948  14.1630
    14.3657  15.9632

     occupation numbers 
     1.0000   1.0000   1.0000   1.0000   0.0000   0.0000   0.0000   0.0000
     0.0000   0.0000

          k = 0.6875-0.1875 1.0000 (   253 PWs)   bands (ev):

    -2.6294  -0.1704   2.5121   3.1607   8.7839   9.2531  11.8645  15.0233
    15.2825  17.1055

     occupation numbers 
     1.0000   1.0000   1.0000   1.0000   0.0000   0.0000   0.0000   0.0000
     0.0000   0.0000

          k = 0.6562-0.1562 0.9688 (   255 PWs)   bands (ev):

    -2.3867  -0.4141   2.3658   3.0383   8.9770   9.5792  11.7273  14.4986
    15.3385  17.3754

     occupation numbers 
     1.0000   1.0000   1.0000   1.0000   0.0000   0.0000   0.0000   0.0000
     0.0000   0.0000

          k = 0.6250-0.1250 0.9375 (   256 PWs)   bands (ev):

    -2.1608  -0.6370   2.2193   2.9824   9.0699  10.0724  11.6051  13.7976
    15.4568  17.6741

     occupation numbers 
     1.0000   1.0000   1.0000   1.0000   0.0000   0.0000   0.0000   0.0000
     0.0000   0.0000

          k = 0.5938-0.0938 0.9062 (   259 PWs)   bands (ev):

    -1.9967  -0.7993   2.0878   2.9855   9.1556  10.5980  11.5287  13.1197
    15.4845  17.6391

     occupation numbers 
     1.0000   1.0000   1.0000   1.0000   0.0000   0.0000   0.0000   0.0000
     0.0000   0.0000

          k = 0.5625-0.0625 0.8750 (   259 PWs)   bands (ev):

    -1.9582  -0.8316   1.9892   3.0379   9.2557  10.9860  11.6274  12.4921
    15.4364  17.2345

     occupation numbers 
     1.0000   1.0000   1.0000   1.0000   0.0000   0.0000   0.0000   0.0000
     0.0000   0.0000

          k = 0.5312-0.0312 0.8438 (   259 PWs)   bands (ev):

    -2.0677  -0.7191   1.9377   3.1305   9.3751  11.0213  11.7783  12.2399
    15.2949  16.7964

     occupation numbers 
     1.0000   1.0000   1.0000   1.0000   0.0000   0.0000   0.0000   0.0000
     0.0000   0.0000

          k = 0.5000 0.0000 0.8125 (   257 PWs)   bands (ev):

    -2.2655  -0.5325   1.9463   3.2573   9.5139  10.8281  11.4123  12.8199
    15.0184  16.4683

     occupation numbers 
     1.0000   1.0000   1.0000   1.0000   0.0000   0.0000   0.0000   0.0000
     0.0000   0.0000

          k = 0.6875-0.1250 1.0000 (   253 PWs)   bands (ev):

    -2.2351  -0.5788   2.4937   2.9192   8.7638   9.0709  12.3619  14.6060
    15.7633  17.6215

     occupation numbers 
     1.0000   1.0000   1.0000   1.0000   0.0000   0.0000   0.0000   0.0000
     0.0000   0.0000

          k = 0.6562-0.0938 0.9688 (   256 PWs)   bands (ev):

    -2.0010  -0.8001   2.3563   2.8244   8.9393   9.4647  12.2241  13.8961
    16.0052  17.6874

     occupation numbers 
     1.0000   1.0000   1.0000   1.0000   0.0000   0.0000   0.0000   0.0000
     0.0000   0.0000

          k = 0.6250-0.0625 0.9375 (   258 PWs)   bands (ev):

    -1.8108  -0.9745   2.1928   2.8260   9.0276  10.0091  12.0999  13.2072
    16.0888  17.5450

     occupation numbers 
     1.0000   1.0000   1.0000   1.0000   0.0000   0.0000   0.0000   0.0000
     0.0000   0.0000

          k = 0.5938-0.0312 0.9062 (   259 PWs)   bands (ev):

    -1.7537  -1.0188   2.0512   2.8883   9.1247  10.5815  12.0020  12.5576
    16.0140  17.2227

     occupation numbers 
     1.0000   1.0000   1.0000   1.0000   0.0000   0.0000   0.0000   0.0000
     0.0000   0.0000

          k = 0.5625 0.0000 0.8750 (   260 PWs)   bands (ev):

    -1.8688  -0.9028   1.9603   2.9925   9.2376  11.0759  11.9529  12.0208
    15.7445  16.9448

     occupation numbers 
     1.0000   1.0000   1.0000   1.0000   0.0000   0.0000   0.0000   0.0000
     0.0000   0.0000

          k = 0.6875-0.0625 1.0000 (   254 PWs)   bands (ev):

    -1.8297  -0.9955   2.5224   2.7320   8.7821   8.9338  12.8853  14.0146
    16.4257  17.5969

     occupation numbers 
     1.0000   1.0000   1.0000   1.0000   0.0000   0.0000   0.0000   0.0000
     0.0000   0.0000

          k = 0.6562-0.0312 0.9688 (   259 PWs)   bands (ev):

    -1.6185  -1.1848   2.3694   2.6967   8.9183   9.4037  12.7511  13.3113
    16.6301  17.3624

     occupation numbers 
     1.0000   1.0000   1.0000   1.0000   0.0000   0.0000   0.0000   0.0000
     0.0000   0.0000

          k = 0.6250 0.0000 0.9375 (   260 PWs)   bands (ev):

    -1.5846  -1.1970   2.1855   2.7708   9.0104   9.9852  12.5737  12.7007
    16.4754  17.2283

     occupation numbers 
     1.0000   1.0000   1.0000   1.0000   0.0000   0.0000   0.0000   0.0000
     0.0000   0.0000

          k =-0.3125-1.0000 0.0000 (   258 PWs)   bands (ev):

    -1.4165  -1.4165   2.5999   2.5999   8.8353   8.8353  13.4343  13.4343
    17.0653  17.0653

     occupation numbers 
     1.0000   1.0000   1.0000   1.0000   0.0000   0.0000   0.0000   0.0000
     0.0000   0.0000

          k = 0.6250-0.2500 1.0000 (   254 PWs)   bands (ev):

    -2.8770   0.0755   2.3260   3.4876   9.4871  10.0146  10.7355  14.3614
    15.0144  16.2210

     occupation numbers 
     1.0000   1.0000   1.0000   1.0000   0.0000   0.0000   0.0000   0.0000
     0.0000   0.0000

          k = 0.5938-0.2188 0.9688 (   255 PWs)   bands (ev):

    -2.6353  -0.1773   2.1993   3.3443   9.6942  10.1831  10.7497  14.3022
    14.6227  16.5204

     occupation numbers 
     1.0000   1.0000   1.0000   1.0000   0.0000   0.0000   0.0000   0.0000
     0.0000   0.0000

          k = 0.5625-0.1875 0.9375 (   257 PWs)   bands (ev):

    -2.4099  -0.4176   2.1160   3.2354   9.7752  10.2374  11.0734  13.6040
    14.7649  16.9431

     occupation numbers 
     1.0000   1.0000   1.0000   1.0000   0.0000   0.0000   0.0000   0.0000
     0.0000   0.0000

          k = 0.5312-0.1562 0.9062 (   260 PWs)   bands (ev):

    -2.2362  -0.6053   2.0690   3.1671   9.8178  10.1972  11.5858  12.9395
    14.8317  17.4100

     occupation numbers 
     1.0000   1.0000   1.0000   1.0000   0.0000   0.0000   0.0000   0.0000
     0.0000   0.0000

          k = 0.5000-0.1250 0.8750 (   260 PWs)   bands (ev):

    -2.1676  -0.6780   2.0542   3.1439   9.8349  10.1749  12.0036  12.4797
    14.8507  17.6916

     occupation numbers 
     1.0000   1.0000   1.0000   1.0000   0.0000   0.0000   0.0000   0.0000
     0.0000   0.0000

          k = 0.6250-0.1875 1.0000 (   255 PWs)   bands (ev):

    -2.5190  -0.2718   2.2815   3.1458   9.4360   9.8397  11.1323  14.3933
    15.0559  16.9032

     occupation numbers 
     1.0000   1.0000   1.0000   1.0000   0.0000   0.0000   0.0000   0.0000
     0.0000   0.0000

          k = 0.5938-0.1562 0.9688 (   257 PWs)   bands (ev):

    -2.2842  -0.5016   2.1768   3.0165   9.6284  10.1698  11.0421  13.6842
    15.3185  17.1888

     occupation numbers 
     1.0000   1.0000   1.0000   1.0000   0.0000   0.0000   0.0000   0.0000
     0.0000   0.0000

          k = 0.5625-0.1250 0.9375 (   259 PWs)   bands (ev):

    -2.0837  -0.7013   2.0980   2.9407   9.7168  10.5068  11.1181  12.9993
    15.4498  17.5378

     occupation numbers 
     1.0000   1.0000   1.0000   1.0000   0.0000   0.0000   0.0000   0.0000
     0.0000   0.0000

          k = 0.5312-0.0938 0.9062 (   258 PWs)   bands (ev):

    -1.9746  -0.8046   2.0441   2.9230   9.8001  10.5632  11.5239  12.3766
    15.4861  17.6783

     occupation numbers 
     1.0000   1.0000   1.0000   1.0000   0.0000   0.0000   0.0000   0.0000
     0.0000   0.0000

          k = 0.5000-0.0625 0.8750 (   258 PWs)   bands (ev):

    -2.0127  -0.7654   2.0190   2.9613   9.8910  10.5001  11.5987  12.2926
    15.4437  17.3889

     occupation numbers 
     1.0000   1.0000   1.0000   1.0000   0.0000   0.0000   0.0000   0.0000
     0.0000   0.0000

          k = 0.4688-0.0312 0.8438 (   259 PWs)   bands (ev):

    -2.1744  -0.6091   2.0307   3.0492   9.9890  10.3818  11.1259  12.9002
    15.3055  16.9954

     occupation numbers 
     1.0000   1.0000   1.0000   1.0000   0.0000   0.0000   0.0000   0.0000
     0.0000   0.0000

          k = 0.4375 0.0000 0.8125 (   258 PWs)   bands (ev):

    -2.3975  -0.3952   2.0886   3.1793  10.0880  10.1241  10.8191  13.5833
    15.0349  16.6858

     occupation numbers 
     1.0000   1.0000   1.0000   1.0000   0.0000   0.0000   0.0000   0.0000
     0.0000   0.0000

          k = 0.6250-0.1250 1.0000 (   253 PWs)   bands (ev):

    -2.1436  -0.6316   2.2849   2.8569   9.4138   9.6845  11.5918  13.7870
    15.7479  17.4672

     occupation numbers 
     1.0000   1.0000   1.0000   1.0000   0.0000   0.0000   0.0000   0.0000
     0.0000   0.0000

          k = 0.5938-0.0938 0.9688 (   258 PWs)   bands (ev):

    -1.9258  -0.8385   2.2009   2.7501   9.5883  10.1026  11.4741  13.0845
    16.0026  17.5899

     occupation numbers 
     1.0000   1.0000   1.0000   1.0000   0.0000   0.0000   0.0000   0.0000
     0.0000   0.0000

          k = 0.5625-0.0625 0.9375 (   258 PWs)   bands (ev):

    -1.7800  -0.9708   2.1128   2.7315   9.6793  10.6070  11.4245  12.4262
    16.0886  17.5755

     occupation numbers 
     1.0000   1.0000   1.0000   1.0000   0.0000   0.0000   0.0000   0.0000
     0.0000   0.0000

          k = 0.5312-0.0312 0.9062 (   258 PWs)   bands (ev):

    -1.7963  -0.9482   2.0407   2.7864   9.7795  10.8886  11.5524  11.9019
    16.0085  17.3528

     occupation numbers 
     1.0000   1.0000   1.0000   1.0000   0.0000   0.0000   0.0000   0.0000
     0.0000   0.0000

          k = 0.5000 0.0000 0.8750 (   259 PWs)   bands (ev):

    -1.9586  -0.7988   2.0085   2.8963   9.8921  10.7752  11.2955  12.2478
    15.7444  17.1238

     occupation numbers 
     1.0000   1.0000   1.0000   1.0000   0.0000   0.0000   0.0000   0.0000
     0.0000   0.0000

          k = 0.6250-0.0625 1.0000 (   256 PWs)   bands (ev):

    -1.7655  -1.0065   2.3409   2.6246   9.4278   9.5625  12.0896  13.1916
    16.4285  17.5458

     occupation numbers 
     1.0000   1.0000   1.0000   1.0000   0.0000   0.0000   0.0000   0.0000
     0.0000   0.0000

          k = 0.5938-0.0312 0.9688 (   259 PWs)   bands (ev):

    -1.5851  -1.1672   2.2530   2.5737   9.5685  10.0592  11.9707  12.5126
    16.6291  17.3778

     occupation numbers 
     1.0000   1.0000   1.0000   1.0000   0.0000   0.0000   0.0000   0.0000
     0.0000   0.0000

          k = 0.5625 0.0000 0.9375 (   260 PWs)   bands (ev):

    -1.6114  -1.1302   2.1266   2.6508   9.6636  10.6166  11.8606  11.9201
    16.4578  17.3213

     occupation numbers 
     1.0000   1.0000   1.0000   1.0000   0.0000   0.0000   0.0000   0.0000
     0.0000   0.0000

          k =-0.3750-1.0000 0.0000 (   258 PWs)   bands (ev):

    -1.3855  -1.3855   2.4528   2.4528   9.4744   9.4744  12.6244  12.6244
    17.0672  17.0672

     occupation numbers 
     1.0000   1.0000   1.0000   1.0000   0.0000   0.0000   0.0000   0.0000
     0.0000   0.0000

          k = 0.5625-0.1250 1.0000 (   259 PWs)   bands (ev):

    -2.0529  -0.7094   2.1189   2.8487  10.0977  10.2042  10.9866  12.9787
    15.7441  17.2988

     occupation numbers 
     1.0000   1.0000   1.0000   1.0000   0.0000   0.0000   0.0000   0.0000
     0.0000   0.0000

          k = 0.5312-0.0938 0.9688 (   259 PWs)   bands (ev):

    -1.8573  -0.8889   2.0927   2.7375  10.1831  10.4814  11.1294  12.3230
    16.0049  17.4776

     occupation numbers 
     1.0000   1.0000   1.0000   1.0000   0.0000   0.0000   0.0000   0.0000
     0.0000   0.0000

          k = 0.5000-0.0625 0.9375 (   258 PWs)   bands (ev):

    -1.7706  -0.9676   2.0860   2.6981  10.1930  10.5606  11.4379  11.8769
    16.0889  17.5865

     occupation numbers 
     1.0000   1.0000   1.0000   1.0000   0.0000   0.0000   0.0000   0.0000
     0.0000   0.0000

          k = 0.5625-0.0625 1.0000 (   258 PWs)   bands (ev):

    -1.7063  -1.0305   2.2085   2.5728  10.1028  10.1799  11.3776  12.4023
    16.4369  17.4805

     occupation numbers 
     1.0000   1.0000   1.0000   1.0000   0.0000   0.0000   0.0000   0.0000
     0.0000   0.0000

          k = 0.5312-0.0312 0.9688 (   258 PWs)   bands (ev):

    -1.5653  -1.1570   2.1933   2.5082  10.2094  10.6151  11.3579  11.7962
    16.6294  17.3881

     occupation numbers 
     1.0000   1.0000   1.0000   1.0000   0.0000   0.0000   0.0000   0.0000
     0.0000   0.0000

          k = 0.5000 0.0000 0.9375 (   261 PWs)   bands (ev):

    -1.6551  -1.0738   2.1345   2.5819  10.2705  10.7124  11.2610  11.7443
    16.4442  17.4063

     occupation numbers 
     1.0000   1.0000   1.0000   1.0000   0.0000   0.0000   0.0000   0.0000
     0.0000   0.0000

          k =-0.4375-1.0000 0.0000 (   258 PWs)   bands (ev):

    -1.3639  -1.3639   2.3588   2.3588  10.1314  10.1314  11.8655  11.8656
    17.0697  17.0697

     occupation numbers 
     1.0000   1.0000   1.0000   1.0000   0.0000   0.0000   0.0000   0.0000
     0.0000   0.0000

          k =-0.5000-1.0000 0.0000 (   264 PWs)   bands (ev):

    -1.3614  -1.3614   2.3258   2.3258  10.5679  10.5679  11.3862  11.3862
    17.0670  17.0670

     occupation numbers 
     1.0000   1.0000   1.0000   1.0000   0.0000   0.0000   0.0000   0.0000
     0.0000   0.0000

     highest occupied, lowest unoccupied level (ev):     6.3154    6.8250

     Writing output data file run_output/Silicon.save/

     init_run     :      0.07s CPU      0.18s WALL (       1 calls)
     electrons    :      5.49s CPU      5.94s WALL (       1 calls)

     Called by init_run:
     wfcinit      :      0.00s CPU      0.02s WALL (       1 calls)
     wfcinit:atom :      0.00s CPU      0.00s WALL (     129 calls)
     wfcinit:wfcr :      0.28s CPU      0.49s WALL (     129 calls)
     potinit      :      0.02s CPU      0.03s WALL (       1 calls)
     hinit0       :      0.01s CPU      0.02s WALL (       1 calls)

     Called by electrons:
     c_bands      :      5.46s CPU      5.86s WALL (       1 calls)
     v_of_rho     :      0.00s CPU      0.00s WALL (       1 calls)
     v_h          :      0.00s CPU      0.00s WALL (       1 calls)
     v_xc         :      0.00s CPU      0.00s WALL (       1 calls)

     Called by c_bands:
     init_us_2    :      0.00s CPU      0.00s WALL (     129 calls)
     cegterg      :      4.00s CPU      4.16s WALL (     152 calls)

     Called by sum_band:

     Called by *egterg:
     cdiaghg      :      2.37s CPU      2.58s WALL (    2478 calls)
     cegterg:over :      0.41s CPU      0.43s WALL (    2349 calls)
     cegterg:upda :      0.10s CPU      0.10s WALL (    2349 calls)
     cegterg:last :      0.12s CPU      0.12s WALL (    1363 calls)
     cdiaghg:chol :      0.18s CPU      0.23s WALL (    2478 calls)
     cdiaghg:inve :      0.13s CPU      0.14s WALL (    2478 calls)
     cdiaghg:para :      0.16s CPU      0.17s WALL (    4956 calls)
     h_psi        :      1.19s CPU      1.31s WALL (    2630 calls)
     g_psi        :      0.01s CPU      0.01s WALL (    2349 calls)

     Called by h_psi:
     h_psi:calbec :      0.05s CPU      0.12s WALL (    2630 calls)
     vloc_psi     :      1.11s CPU      1.16s WALL (    2630 calls)
     add_vuspsi   :      0.01s CPU      0.01s WALL (    2630 calls)

     General routines
     calbec       :      0.05s CPU      0.11s WALL (    2630 calls)
     fft          :      0.00s CPU      0.00s WALL (       3 calls)
     fftw         :      0.97s CPU      1.02s WALL (   29872 calls)
     davcio       :      0.00s CPU      0.00s WALL (     258 calls)

     Parallel routines
     fft_scatt_xy :      0.11s CPU      0.11s WALL (   29875 calls)
     fft_scatt_yz :      0.45s CPU      0.47s WALL (   29875 calls)

     PWSCF        :      6.04s CPU      8.01s WALL


   This run was terminated on:  12:29:35  21Jul2022            

=------------------------------------------------------------------------------=
   JOB DONE.
=------------------------------------------------------------------------------=
