
     Program PWSCF v.6.7MaX starts on 23Dec2021 at 16:28:29 

     This program is part of the open-source Quantum ESPRESSO suite
     for quantum simulation of materials; please cite
         "P. Giannozzi et al., J. Phys.:Condens. Matter 21 395502 (2009);
         "P. Giannozzi et al., J. Phys.:Condens. Matter 29 465901 (2017);
          URL http://www.quantum-espresso.org", 
     in publications or presentations arising from this work. More details at
     http://www.quantum-espresso.org/quote

     Parallel version (MPI), running on    56 processors

     MPI processes distributed on     2 nodes
     K-points division:     npool     =       7
     R & G space division:  proc/nbgrp/npool/nimage =       8
     Waiting for input...
     Reading input from standard input

     Current dimensions of program PWSCF are:
     Max number of different atomic species (ntypx) = 10
     Max number of k-points (npk) =  40000
     Max angular momentum in pseudopotentials (lmaxx) =  3

     Atomic positions and unit cell read from directory:
     run_output/MoS2_2D.save/
     Atomic positions from file used, from input discarded


     Subspace diagonalization in iterative solution of the eigenvalue problem:
     one sub-group per band group will be used
     scalapack distributed-memory algorithm (size of sub-group:  2*  2 procs)


     Parallelization info
     --------------------
     sticks:   dense  smooth     PW     G-vecs:    dense   smooth      PW
     Min          72      72     20                 7072     7072    1132
     Max          74      74     21                 7080     7080    1155
     Sum         583     583    163                56613    56613    9123



     bravais-lattice index     =            4
     lattice parameter (alat)  =       5.8772  a.u.
     unit-cell volume          =     897.4163 (a.u.)^3
     number of atoms/cell      =            3
     number of atomic types    =            2
     number of electrons       =        26.00
     number of Kohn-Sham states=           40
     kinetic-energy cutoff     =      60.0000  Ry
     charge density cutoff     =     240.0000  Ry
     Exchange-correlation= SLA-PZ-NOGX-NOGC
                           (   1   1   0   0   0   0   0)

     celldm(1)=   5.877208  celldm(2)=   0.000000  celldm(3)=   5.104465
     celldm(4)=   0.000000  celldm(5)=   0.000000  celldm(6)=   0.000000

     crystal axes: (cart. coord. in units of alat)
               a(1) = (   1.000000   0.000000   0.000000 )  
               a(2) = (  -0.500000   0.866025   0.000000 )  
               a(3) = (   0.000000   0.000000   5.104465 )  

     reciprocal axes: (cart. coord. in units 2 pi/alat)
               b(1) = (  1.000000  0.577350 -0.000000 )  
               b(2) = (  0.000000  1.154701  0.000000 )  
               b(3) = (  0.000000 -0.000000  0.195907 )  


     PseudoPot. # 1 for Mo read from file:
     PPs/Mo_SR_withPS_PZ.UPF
     MD5 check sum: 19bf02b7f08077cf8574869525df176e
     Pseudo is Norm-conserving + core correction, Zval = 14.0
     Generated using "atomic" code by A. Dal Corso  (Quantum ESPRESSO distribution)
     Using radial grid of 1229 points,  5 beta functions with: 
                l(1) =   0
                l(2) =   0
                l(3) =   1
                l(4) =   2
                l(5) =   2

     PseudoPot. # 2 for S  read from file:
     PPs/S.pz-hgh.UPF
     MD5 check sum: fb24c143a2a3ea3aba309d3cb9e9e6ec
     Pseudo is Norm-conserving, Zval =  6.0
     Generated in analytical, separable form
     Using radial grid of 1151 points,  3 beta functions with: 
                l(1) =   0
                l(2) =   0
                l(3) =   1

     atomic species   valence    mass     pseudopotential
        Mo            14.00    95.94000     Mo( 1.00)
        S              6.00    32.06500     S ( 1.00)

     12 Sym. Ops. (no inversion) found


                                    s                        frac. trans.

      isym =  1     identity                                     

 cryst.   s( 1) = (     1          0          0      )
                  (     0          1          0      )
                  (     0          0          1      )

 cart.    s( 1) = (  1.0000000  0.0000000  0.0000000 )
                  (  0.0000000  1.0000000  0.0000000 )
                  (  0.0000000  0.0000000  1.0000000 )


      isym =  2     180 deg rotation - cart. axis [0,1,0]        

 cryst.   s( 2) = (    -1          0          0      )
                  (     1          1          0      )
                  (     0          0         -1      )

 cart.    s( 2) = ( -1.0000000  0.0000000  0.0000000 )
                  (  0.0000000  1.0000000  0.0000000 )
                  (  0.0000000  0.0000000 -1.0000000 )


      isym =  3     120 deg rotation - cryst. axis [0,0,1]       

 cryst.   s( 3) = (     0          1          0      )
                  (    -1         -1          0      )
                  (     0          0          1      )

 cart.    s( 3) = ( -0.5000000 -0.8660254  0.0000000 )
                  (  0.8660254 -0.5000000  0.0000000 )
                  (  0.0000000  0.0000000  1.0000000 )


      isym =  4     120 deg rotation - cryst. axis [0,0,-1]      

 cryst.   s( 4) = (    -1         -1          0      )
                  (     1          0          0      )
                  (     0          0          1      )

 cart.    s( 4) = ( -0.5000000  0.8660254  0.0000000 )
                  ( -0.8660254 -0.5000000  0.0000000 )
                  (  0.0000000  0.0000000  1.0000000 )


      isym =  5     180 deg rotation - cryst. axis [1,-1,0]      

 cryst.   s( 5) = (     0         -1          0      )
                  (    -1          0          0      )
                  (     0          0         -1      )

 cart.    s( 5) = (  0.5000000 -0.8660254  0.0000000 )
                  ( -0.8660254 -0.5000000  0.0000000 )
                  (  0.0000000  0.0000000 -1.0000000 )


      isym =  6     180 deg rotation - cryst. axis [2,1,0]       

 cryst.   s( 6) = (     1          1          0      )
                  (     0         -1          0      )
                  (     0          0         -1      )

 cart.    s( 6) = (  0.5000000  0.8660254  0.0000000 )
                  (  0.8660254 -0.5000000  0.0000000 )
                  (  0.0000000  0.0000000 -1.0000000 )


      isym =  7     inv. 180 deg rotation - cart. axis [0,0,1]   

 cryst.   s( 7) = (     1          0          0      )
                  (     0          1          0      )
                  (     0          0         -1      )

 cart.    s( 7) = (  1.0000000  0.0000000  0.0000000 )
                  (  0.0000000  1.0000000  0.0000000 )
                  (  0.0000000  0.0000000 -1.0000000 )


      isym =  8     inv. 180 deg rotation - cart. axis [1,0,0]   

 cryst.   s( 8) = (    -1          0          0      )
                  (     1          1          0      )
                  (     0          0          1      )

 cart.    s( 8) = ( -1.0000000  0.0000000  0.0000000 )
                  (  0.0000000  1.0000000  0.0000000 )
                  (  0.0000000  0.0000000  1.0000000 )


      isym =  9     inv.  60 deg rotation - cryst. axis [0,0,1]  

 cryst.   s( 9) = (    -1         -1          0      )
                  (     1          0          0      )
                  (     0          0         -1      )

 cart.    s( 9) = ( -0.5000000  0.8660254  0.0000000 )
                  ( -0.8660254 -0.5000000  0.0000000 )
                  (  0.0000000  0.0000000 -1.0000000 )


      isym = 10     inv.  60 deg rotation - cryst. axis [0,0,-1] 

 cryst.   s(10) = (     0          1          0      )
                  (    -1         -1          0      )
                  (     0          0         -1      )

 cart.    s(10) = ( -0.5000000 -0.8660254  0.0000000 )
                  (  0.8660254 -0.5000000  0.0000000 )
                  (  0.0000000  0.0000000 -1.0000000 )


      isym = 11     inv. 180 deg rotation - cryst. axis [0,1,0]  

 cryst.   s(11) = (     1          1          0      )
                  (     0         -1          0      )
                  (     0          0          1      )

 cart.    s(11) = (  0.5000000  0.8660254  0.0000000 )
                  (  0.8660254 -0.5000000  0.0000000 )
                  (  0.0000000  0.0000000  1.0000000 )


      isym = 12     inv. 180 deg rotation - cryst. axis [1,1,0]  

 cryst.   s(12) = (     0         -1          0      )
                  (    -1          0          0      )
                  (     0          0          1      )

 cart.    s(12) = (  0.5000000 -0.8660254  0.0000000 )
                  ( -0.8660254 -0.5000000  0.0000000 )
                  (  0.0000000  0.0000000  1.0000000 )


     point group D_3h (-62m)
     there are  6 classes
     the character table:

       E     2C3   3C2   s_h   2S3   3s_v 
A'_1   1.00  1.00  1.00  1.00  1.00  1.00
A'_2   1.00  1.00 -1.00  1.00  1.00 -1.00
E'     2.00 -1.00  0.00  2.00 -1.00  0.00
A''1   1.00  1.00  1.00 -1.00 -1.00 -1.00
A''2   1.00  1.00 -1.00 -1.00 -1.00  1.00
E''    2.00 -1.00  0.00 -2.00  1.00  0.00

     the symmetry operations in each class and the name of the first element:

     E        1
          identity                                               
     2C3      3    4
          120 deg rotation - cryst. axis [0,0,1]                 
     3C2      2    6    5
          180 deg rotation - cart. axis [0,1,0]                  
     s_h      7
          inv. 180 deg rotation - cart. axis [0,0,1]             
     2S3      9   10
          inv.  60 deg rotation - cryst. axis [0,0,1]            
     3s_v     8   11   12
          inv. 180 deg rotation - cart. axis [1,0,0]             

   Cartesian axes

     site n.     atom                  positions (alat units)
         1           Mo  tau(   1) = (  -0.0000000   0.5773503   0.0000000  )
         2           S   tau(   2) = (   0.5000000   0.2886751   0.4991315  )
         3           S   tau(   3) = (   0.5000000   0.2886751  -0.4991315  )

   Crystallographic axes

     site n.     atom                  positions (cryst. coord.)
         1           Mo  tau(   1) = (  0.3333333  0.6666667  0.0000000  )
         2           S   tau(   2) = (  0.6666667  0.3333333  0.0977833  )
         3           S   tau(   3) = (  0.6666667  0.3333333 -0.0977833  )

     number of k points=    19  Gaussian smearing, width (Ry)=  0.0017
                       cart. coord. in units 2pi/alat
        k(    1) = (   0.0000000   0.0000000   0.0000000), wk =   0.0138889
        k(    2) = (   0.0000000   0.0962250   0.0000000), wk =   0.0833333
        k(    3) = (   0.0000000   0.1924501   0.0000000), wk =   0.0833333
        k(    4) = (   0.0000000   0.2886751   0.0000000), wk =   0.0833333
        k(    5) = (   0.0000000   0.3849002   0.0000000), wk =   0.0833333
        k(    6) = (   0.0000000   0.4811252   0.0000000), wk =   0.0833333
        k(    7) = (   0.0000000  -0.5773503   0.0000000), wk =   0.0416667
        k(    8) = (   0.0833333   0.1443376   0.0000000), wk =   0.0833333
        k(    9) = (   0.0833333   0.2405626   0.0000000), wk =   0.1666667
        k(   10) = (   0.0833333   0.3367877   0.0000000), wk =   0.1666667
        k(   11) = (   0.0833333   0.4330127   0.0000000), wk =   0.1666667
        k(   12) = (   0.0833333   0.5292377   0.0000000), wk =   0.1666667
        k(   13) = (   0.1666667   0.2886751   0.0000000), wk =   0.0833333
        k(   14) = (   0.1666667   0.3849002   0.0000000), wk =   0.1666667
        k(   15) = (   0.1666667   0.4811252   0.0000000), wk =   0.1666667
        k(   16) = (   0.1666667   0.5773503   0.0000000), wk =   0.0833333
        k(   17) = (   0.2500000   0.4330127   0.0000000), wk =   0.0833333
        k(   18) = (   0.2500000   0.5292377   0.0000000), wk =   0.1666667
        k(   19) = (   0.3333333   0.5773503   0.0000000), wk =   0.0277778

                       cryst. coord.
        k(    1) = (   0.0000000   0.0000000   0.0000000), wk =   0.0138889
        k(    2) = (   0.0000000   0.0833333   0.0000000), wk =   0.0833333
        k(    3) = (   0.0000000   0.1666667   0.0000000), wk =   0.0833333
        k(    4) = (   0.0000000   0.2500000   0.0000000), wk =   0.0833333
        k(    5) = (   0.0000000   0.3333333   0.0000000), wk =   0.0833333
        k(    6) = (   0.0000000   0.4166667   0.0000000), wk =   0.0833333
        k(    7) = (   0.0000000  -0.5000000   0.0000000), wk =   0.0416667
        k(    8) = (   0.0833333   0.0833333   0.0000000), wk =   0.0833333
        k(    9) = (   0.0833333   0.1666667   0.0000000), wk =   0.1666667
        k(   10) = (   0.0833333   0.2500000   0.0000000), wk =   0.1666667
        k(   11) = (   0.0833333   0.3333333   0.0000000), wk =   0.1666667
        k(   12) = (   0.0833333   0.4166667   0.0000000), wk =   0.1666667
        k(   13) = (   0.1666667   0.1666667   0.0000000), wk =   0.0833333
        k(   14) = (   0.1666667   0.2500000   0.0000000), wk =   0.1666667
        k(   15) = (   0.1666667   0.3333333   0.0000000), wk =   0.1666667
        k(   16) = (   0.1666667   0.4166667   0.0000000), wk =   0.0833333
        k(   17) = (   0.2500000   0.2500000   0.0000000), wk =   0.0833333
        k(   18) = (   0.2500000   0.3333333   0.0000000), wk =   0.1666667
        k(   19) = (   0.3333333   0.3333333   0.0000000), wk =   0.0277778

     Dense  grid:    56613 G-vectors     FFT dimensions: (  30,  30, 150)

     Dynamical RAM for                 wfc:       0.54 MB

     Dynamical RAM for     wfc (w. buffer):       0.54 MB

     Dynamical RAM for           str. fact:       0.22 MB

     Dynamical RAM for           local pot:       0.00 MB

     Dynamical RAM for          nlocal pot:       0.34 MB

     Dynamical RAM for                qrad:       1.78 MB

     Dynamical RAM for          rho,v,vnew:       0.72 MB

     Dynamical RAM for           G-vectors:       0.46 MB

     Dynamical RAM for          h,s,v(r/c):       0.29 MB

     Dynamical RAM for          <psi|beta>:       0.02 MB

     Dynamical RAM for                 psi:       2.15 MB

     Dynamical RAM for                hpsi:       2.15 MB

     Dynamical RAM for      wfcinit/wfcrot:       1.11 MB

     Estimated static dynamical RAM per process >       5.02 MB

     Estimated max dynamical RAM per process >       9.62 MB

     Estimated total dynamical RAM >     538.85 MB

     Check: negative core charge=   -0.000110

     The potential is recalculated from file :
     run_output/MoS2_2D.save/charge-density

     Starting wfcs are   28 randomized atomic wfcs +   12 random wfcs

     Band Structure Calculation
     Davidson diagonalization with overlap

     Computing kpt #:     1  of     3 on this pool
     total cpu time spent up to now is        1.7 secs

     Computing kpt #:     2  of     3 on this pool
     total cpu time spent up to now is        2.3 secs

     Computing kpt #:     3  of     3 on this pool
     total cpu time spent up to now is        2.8 secs

     ethr =  1.00E-06,  avg # of iterations = 16.2

     total cpu time spent up to now is        2.9 secs

     End of band structure calculation

          k = 0.0000 0.0000 0.0000 (  7087 PWs)   bands (ev):

   -60.0192 -34.5055 -34.1927 -34.1927 -13.9247 -12.5319  -5.4855  -2.2746
    -2.2746  -1.5382  -1.0815  -1.0815   0.2326   3.3519   3.3519   3.6428
     3.6428   5.1025   5.7742   6.6068   7.1171   8.6692   9.5871  10.4499
    11.2868  11.2868  13.3061  13.3061  13.4606  13.5350  15.4576  16.7035
    16.7035  16.7067  17.1168  17.1168  18.9773  19.6742  20.5814  21.2940

     occupation numbers 
     1.0000   1.0000   1.0000   1.0000   1.0000   1.0000   1.0000   1.0000
     1.0000   1.0000   1.0000   1.0000   1.0000   0.0000   0.0000   0.0000
     0.0000   0.0000   0.0000   0.0000   0.0000   0.0000   0.0000   0.0000
     0.0000   0.0000   0.0000   0.0000   0.0000   0.0000   0.0000   0.0000
     0.0000   0.0000   0.0000   0.0000   0.0000   0.0000   0.0000   0.0000

          k = 0.0000 0.0962 0.0000 (  7065 PWs)   bands (ev):

   -60.0143 -34.4986 -34.2260 -34.2000 -13.8107 -12.4862  -5.3588  -2.5153
    -2.1535  -2.0138  -1.2601  -0.7712   0.1990   3.1932   3.3000   3.5117
     3.5476   5.2614   5.9173   6.8920   7.5072   8.7947  10.0724  10.4489
    11.1340  11.6399  12.5000  13.3415  13.4413  13.6568  15.4526  16.0206
    16.7397  16.9078  17.1054  17.7439  19.3790  19.9698  21.2429  21.4358

     occupation numbers 
     1.0000   1.0000   1.0000   1.0000   1.0000   1.0000   1.0000   1.0000
     1.0000   1.0000   1.0000   1.0000   1.0000   0.0000   0.0000   0.0000
     0.0000   0.0000   0.0000   0.0000   0.0000   0.0000   0.0000   0.0000
     0.0000   0.0000   0.0000   0.0000   0.0000   0.0000   0.0000   0.0000
     0.0000   0.0000   0.0000   0.0000   0.0000   0.0000   0.0000   0.0000

          k = 0.0000 0.1925 0.0000 (  7045 PWs)   bands (ev):

   -60.0032 -34.4801 -34.3163 -34.2203 -13.4858 -12.3562  -5.0464  -3.0541
    -2.6973  -1.8155  -1.6784  -0.6790   0.0012   2.7513   3.1095   3.2114
     3.9902   5.6927   6.3339   7.3376   8.6038   9.1207  10.2348  10.5782
    11.1794  11.8685  12.5816  13.0652  13.5443  13.7874  15.2459  15.3059
    15.8373  17.3226  17.3997  19.4790  19.4921  19.8980  20.4034  20.8045

     occupation numbers 
     1.0000   1.0000   1.0000   1.0000   1.0000   1.0000   1.0000   1.0000
     1.0000   1.0000   1.0000   1.0000   1.0000   0.0000   0.0000   0.0000
     0.0000   0.0000   0.0000   0.0000   0.0000   0.0000   0.0000   0.0000
     0.0000   0.0000   0.0000   0.0000   0.0000   0.0000   0.0000   0.0000
     0.0000   0.0000   0.0000   0.0000   0.0000   0.0000   0.0000   0.0000

          k = 0.0000 0.2887 0.0000 (  7009 PWs)   bands (ev):

   -59.9875 -34.4552 -34.4369 -34.2480 -13.0029 -12.1648  -4.8470  -3.4768
    -3.3901  -2.1439  -1.3414  -0.9522  -0.4330   2.5746   2.9224   3.4355
     4.4362   6.3745   6.9796   7.8378   9.1473   9.1805  10.1617  10.2209
    11.5624  12.4176  12.7749  13.6148  13.9373  14.0654  14.9198  15.0223
    15.5789  16.8260  17.4855  17.9158  17.9402  18.7737  19.8771  20.6367

     occupation numbers 
     1.0000   1.0000   1.0000   1.0000   1.0000   1.0000   1.0000   1.0000
     1.0000   1.0000   1.0000   1.0000   1.0000   0.0000   0.0000   0.0000
     0.0000   0.0000   0.0000   0.0000   0.0000   0.0000   0.0000   0.0000
     0.0000   0.0000   0.0000   0.0000   0.0000   0.0000   0.0000   0.0000
     0.0000   0.0000   0.0000   0.0000   0.0000   0.0000   0.0000   0.0000

          k = 0.0000 0.3849 0.0000 (  7036 PWs)   bands (ev):

   -59.9758 -34.5572 -34.4302 -34.2759 -12.4562 -11.9534  -5.1135  -4.0262
    -3.5743  -2.5339  -1.2869  -0.8697  -0.6863   2.7858   2.7868   3.9263
     4.7482   7.2563   7.6889   8.2371   8.5596   8.7755  10.2197  10.5082
    11.9679  12.1267  13.0791  13.3479  14.4703  14.6875  14.8989  15.0448
    15.5519  15.9704  16.6942  16.7463  18.2012  18.3514  18.6474  20.2806

     occupation numbers 
     1.0000   1.0000   1.0000   1.0000   1.0000   1.0000   1.0000   1.0000
     1.0000   1.0000   1.0000   1.0000   1.0000   0.0000   0.0000   0.0000
     0.0000   0.0000   0.0000   0.0000   0.0000   0.0000   0.0000   0.0000
     0.0000   0.0000   0.0000   0.0000   0.0000   0.0000   0.0000   0.0000
     0.0000   0.0000   0.0000   0.0000   0.0000   0.0000   0.0000   0.0000

          k = 0.0000 0.4811 0.0000 (  7054 PWs)   bands (ev):

   -59.9671 -34.6440 -34.4121 -34.2959 -11.9948 -11.7826  -5.5011  -4.4912
    -3.7437  -2.7864  -1.4999  -0.5489  -0.4656   2.8202   3.1532   4.2585
     4.9106   7.1602   8.0413   8.2603   9.1019   9.1196  10.4275  10.5507
    11.7460  12.1351  12.2100  12.3466  13.5917  13.9585  15.0262  15.5699
    15.7715  16.5092  17.2736  17.3475  18.1874  18.6091  18.7198  19.6134

     occupation numbers 
     1.0000   1.0000   1.0000   1.0000   1.0000   1.0000   1.0000   1.0000
     1.0000   1.0000   1.0000   1.0000   1.0000   0.0000   0.0000   0.0000
     0.0000   0.0000   0.0000   0.0000   0.0000   0.0000   0.0000   0.0000
     0.0000   0.0000   0.0000   0.0000   0.0000   0.0000   0.0000   0.0000
     0.0000   0.0000   0.0000   0.0000   0.0000   0.0000   0.0000   0.0000

          k = 0.0000-0.5774 0.0000 (  7056 PWs)   bands (ev):

   -59.9637 -34.6752 -34.4052 -34.3034 -11.8072 -11.7159  -5.6690  -4.6636
    -3.8559  -2.8733  -1.5682  -0.4424  -0.2705   2.8725   3.3715   4.3510
     4.9584   6.6054   8.1931   8.6824   9.3634   9.9332  10.4395  10.6847
    10.7680  11.8477  11.8567  12.4117  13.0454  13.3193  15.2358  15.6153
    16.1655  16.3532  17.5463  17.9450  18.5779  18.7201  18.9723  19.5896

     occupation numbers 
     1.0000   1.0000   1.0000   1.0000   1.0000   1.0000   1.0000   1.0000
     1.0000   1.0000   1.0000   1.0000   1.0000   0.0000   0.0000   0.0000
     0.0000   0.0000   0.0000   0.0000   0.0000   0.0000   0.0000   0.0000
     0.0000   0.0000   0.0000   0.0000   0.0000   0.0000   0.0000   0.0000
     0.0000   0.0000   0.0000   0.0000   0.0000   0.0000   0.0000   0.0000

          k = 0.0833 0.1443 0.0000 (  7059 PWs)   bands (ev):

   -60.0072 -34.4863 -34.2861 -34.2157 -13.5911 -12.3982  -5.1348  -2.8984
    -2.4697  -1.9320  -1.6764  -0.5582   0.0839   2.8834   3.0218   3.2744
     3.9078   5.5539   6.1986   7.2278   8.3145   9.0295  10.3290  10.7100
    11.1103  11.7389  12.1688  13.2070  13.3145  13.9399  15.3675  15.6097
    15.9381  17.0304  17.4005  19.0830  20.0908  20.4386  20.7899  21.0792

     occupation numbers 
     1.0000   1.0000   1.0000   1.0000   1.0000   1.0000   1.0000   1.0000
     1.0000   1.0000   1.0000   1.0000   1.0000   0.0000   0.0000   0.0000
     0.0000   0.0000   0.0000   0.0000   0.0000   0.0000   0.0000   0.0000
     0.0000   0.0000   0.0000   0.0000   0.0000   0.0000   0.0000   0.0000
     0.0000   0.0000   0.0000   0.0000   0.0000   0.0000   0.0000   0.0000

          k = 0.0833 0.2406 0.0000 (  7034 PWs)   bands (ev):

   -59.9940 -34.4645 -34.3872 -34.2441 -13.1860 -12.2362  -4.8458  -3.3610
    -3.0406  -2.2749  -1.5810  -0.5822  -0.2424   2.5180   3.0178   3.0813
     4.3971   6.1119   6.7383   7.7169   9.3718   9.4014  10.1363  10.3800
    11.2900  12.1096  12.4406  13.0361  13.5856  14.4474  14.4588  15.5507
    15.5940  17.4344  17.9557  18.2640  18.8381  19.8201  20.0035  20.2563

     occupation numbers 
     1.0000   1.0000   1.0000   1.0000   1.0000   1.0000   1.0000   1.0000
     1.0000   1.0000   1.0000   1.0000   1.0000   0.0000   0.0000   0.0000
     0.0000   0.0000   0.0000   0.0000   0.0000   0.0000   0.0000   0.0000
     0.0000   0.0000   0.0000   0.0000   0.0000   0.0000   0.0000   0.0000
     0.0000   0.0000   0.0000   0.0000   0.0000   0.0000   0.0000   0.0000

          k = 0.0833 0.3368 0.0000 (  7030 PWs)   bands (ev):

   -59.9804 -34.5023 -34.4396 -34.2770 -12.6670 -12.0311  -4.8962  -3.7175
    -3.5052  -2.6750  -1.3376  -0.9054  -0.5193   2.4621   2.9737   3.4880
     4.7620   6.9121   7.4632   8.2707   9.0681   9.1699  10.3406  10.3781
    11.8657  12.3157  12.5959  13.1353  13.5048  14.7086  15.1474  15.6265
    15.9081  15.9436  16.5953  17.7208  18.0530  18.6834  19.0675  19.3738

     occupation numbers 
     1.0000   1.0000   1.0000   1.0000   1.0000   1.0000   1.0000   1.0000
     1.0000   1.0000   1.0000   1.0000   1.0000   0.0000   0.0000   0.0000
     0.0000   0.0000   0.0000   0.0000   0.0000   0.0000   0.0000   0.0000
     0.0000   0.0000   0.0000   0.0000   0.0000   0.0000   0.0000   0.0000
     0.0000   0.0000   0.0000   0.0000   0.0000   0.0000   0.0000   0.0000

          k = 0.0833 0.4330 0.0000 (  7036 PWs)   bands (ev):

   -59.9691 -34.6013 -34.4178 -34.3052 -12.1528 -11.8332  -5.2519  -4.3389
    -3.5852  -2.8477  -1.2763  -1.2274  -0.3562   2.6767   3.1202   3.9796
     4.8730   7.6683   8.1345   8.1504   8.9016   9.1115  10.5621  10.6526
    11.5413  12.1764  12.3095  13.3209  14.0435  14.0576  14.8502  15.2468
    15.9025  15.9230  16.6373  17.2694  17.6693  18.3544  19.0533  19.1313

     occupation numbers 
     1.0000   1.0000   1.0000   1.0000   1.0000   1.0000   1.0000   1.0000
     1.0000   1.0000   1.0000   1.0000   1.0000   0.0000   0.0000   0.0000
     0.0000   0.0000   0.0000   0.0000   0.0000   0.0000   0.0000   0.0000
     0.0000   0.0000   0.0000   0.0000   0.0000   0.0000   0.0000   0.0000
     0.0000   0.0000   0.0000   0.0000   0.0000   0.0000   0.0000   0.0000

          k = 0.0833 0.5292 0.0000 (  7050 PWs)   bands (ev):

   -59.9633 -34.6579 -34.4051 -34.3217 -11.8155 -11.7081  -5.5231  -4.7038
    -3.7781  -2.8954  -1.5101  -1.0609  -0.0958   2.8605   3.3766   4.3851
     4.7214   6.8619   8.6381   8.8546   9.4177   9.7969  10.4181  10.6840
    11.2539  11.5216  12.0731  12.3885  13.4005  13.6001  15.1119  15.4015
    15.7671  16.4656  17.1613  17.5838  17.6775  18.1216  18.9307  19.0509

     occupation numbers 
     1.0000   1.0000   1.0000   1.0000   1.0000   1.0000   1.0000   1.0000
     1.0000   1.0000   1.0000   1.0000   1.0000   0.0000   0.0000   0.0000
     0.0000   0.0000   0.0000   0.0000   0.0000   0.0000   0.0000   0.0000
     0.0000   0.0000   0.0000   0.0000   0.0000   0.0000   0.0000   0.0000
     0.0000   0.0000   0.0000   0.0000   0.0000   0.0000   0.0000   0.0000

          k = 0.1667 0.2887 0.0000 (  7031 PWs)   bands (ev):

   -59.9822 -34.4745 -34.4430 -34.2855 -12.7419 -12.0576  -4.7842  -3.4661
    -3.4620  -2.9575  -1.5789  -0.6058  -0.4525   2.3241   3.0353   3.1682
     4.8291   6.7949   7.3795   8.2911   9.5503   9.6180  10.3061  10.6874
    11.3694  12.2779  12.3219  12.7257  12.9315  14.7018  15.1909  15.6188
    15.9188  17.2430  17.2908  17.5630  18.0292  18.6020  18.7280  19.0623

     occupation numbers 
     1.0000   1.0000   1.0000   1.0000   1.0000   1.0000   1.0000   1.0000
     1.0000   1.0000   1.0000   1.0000   1.0000   0.0000   0.0000   0.0000
     0.0000   0.0000   0.0000   0.0000   0.0000   0.0000   0.0000   0.0000
     0.0000   0.0000   0.0000   0.0000   0.0000   0.0000   0.0000   0.0000
     0.0000   0.0000   0.0000   0.0000   0.0000   0.0000   0.0000   0.0000

          k = 0.1667 0.3849 0.0000 (  7038 PWs)   bands (ev):

   -59.9711 -34.5568 -34.4214 -34.3312 -12.2442 -11.8573  -4.9833  -4.2048
    -3.3541  -3.0725  -1.9133  -0.9365  -0.3751   2.4949   3.1961   3.4879
     5.0508   7.6746   8.1659   8.6302   9.0326   9.6080  10.7127  10.7985
    11.3651  12.3280  12.5004  12.9835  13.2782  14.8039  14.8559  15.2035
    15.7383  16.2526  16.3575  16.6668  17.4977  17.5505  18.4572  18.6394

     occupation numbers 
     1.0000   1.0000   1.0000   1.0000   1.0000   1.0000   1.0000   1.0000
     1.0000   1.0000   1.0000   1.0000   1.0000   0.0000   0.0000   0.0000
     0.0000   0.0000   0.0000   0.0000   0.0000   0.0000   0.0000   0.0000
     0.0000   0.0000   0.0000   0.0000   0.0000   0.0000   0.0000   0.0000
     0.0000   0.0000   0.0000   0.0000   0.0000   0.0000   0.0000   0.0000

          k = 0.1667 0.4811 0.0000 (  7045 PWs)   bands (ev):

   -59.9630 -34.6151 -34.4053 -34.3662 -11.8319 -11.6925  -5.1842  -4.7778
    -3.5401  -2.9647  -2.0031  -1.3509  -0.1144   2.7574   3.4384   3.8152
     5.0629   7.4806   8.8859   8.9435   9.6305   9.9298  10.4461  10.9728
    11.3128  12.3406  12.3422  12.8273  13.7492  13.9377  14.3306  15.0868
    15.2833  15.9425  16.1467  16.3720  17.3519  17.4376  17.7645  18.2685

     occupation numbers 
     1.0000   1.0000   1.0000   1.0000   1.0000   1.0000   1.0000   1.0000
     1.0000   1.0000   1.0000   1.0000   1.0000   0.0000   0.0000   0.0000
     0.0000   0.0000   0.0000   0.0000   0.0000   0.0000   0.0000   0.0000
     0.0000   0.0000   0.0000   0.0000   0.0000   0.0000   0.0000   0.0000
     0.0000   0.0000   0.0000   0.0000   0.0000   0.0000   0.0000   0.0000

          k = 0.1667 0.5774 0.0000 (  7054 PWs)   bands (ev):

   -59.9604 -34.6362 -34.3994 -34.3794 -11.6674 -11.6274  -5.2562  -4.9869
    -3.7096  -2.8746  -1.9758  -1.5538   0.0745   2.7458   3.6847   3.9548
     5.0200   6.9755   9.5338   9.6380   9.8468   9.9614  10.7557  10.9977
    11.0040  11.5335  12.2207  12.7443  13.3801  13.6364  14.4276  15.1600
    15.3986  15.9309  16.0673  16.9110  17.1225  17.4274  17.6399  17.6683

     occupation numbers 
     1.0000   1.0000   1.0000   1.0000   1.0000   1.0000   1.0000   1.0000
     1.0000   1.0000   1.0000   1.0000   1.0000   0.0000   0.0000   0.0000
     0.0000   0.0000   0.0000   0.0000   0.0000   0.0000   0.0000   0.0000
     0.0000   0.0000   0.0000   0.0000   0.0000   0.0000   0.0000   0.0000
     0.0000   0.0000   0.0000   0.0000   0.0000   0.0000   0.0000   0.0000

          k = 0.2500 0.4330 0.0000 (  7037 PWs)   bands (ev):

   -59.9625 -34.5865 -34.4051 -34.3958 -11.8399 -11.6847  -4.9819  -4.8122
    -3.2297  -3.0077  -2.6473  -1.2522  -0.1542   2.6922   3.4754   3.5297
     5.2807   7.9789   8.7296   8.9585   9.3010  10.1981  10.4141  11.3590
    12.0856  12.5843  12.7005  13.2995  13.4550  13.8096  14.2268  14.3064
    15.1653  15.6964  15.8118  15.8950  16.4937  16.7399  18.4390  18.4592

     occupation numbers 
     1.0000   1.0000   1.0000   1.0000   1.0000   1.0000   1.0000   1.0000
     1.0000   1.0000   1.0000   1.0000   1.0000   0.0000   0.0000   0.0000
     0.0000   0.0000   0.0000   0.0000   0.0000   0.0000   0.0000   0.0000
     0.0000   0.0000   0.0000   0.0000   0.0000   0.0000   0.0000   0.0000
     0.0000   0.0000   0.0000   0.0000   0.0000   0.0000   0.0000   0.0000

          k = 0.2500 0.5292 0.0000 (  7041 PWs)   bands (ev):

   -59.9578 -34.5927 -34.4442 -34.3957 -11.5867 -11.5728  -5.1921  -4.8430
    -3.5647  -2.8761  -2.7808  -1.6221   0.1701   2.5134   3.5340   3.9268
     5.4545   7.4689   8.6639   9.6081  10.2236  10.9695  11.0223  11.6167
    12.1487  12.4256  12.4488  12.9275  13.2300  13.8585  14.0788  14.0826
    14.3350  14.9518  15.4047  15.7464  16.4571  16.8919  17.6369  17.9423

     occupation numbers 
     1.0000   1.0000   1.0000   1.0000   1.0000   1.0000   1.0000   1.0000
     1.0000   1.0000   1.0000   1.0000   1.0000   0.0000   0.0000   0.0000
     0.0000   0.0000   0.0000   0.0000   0.0000   0.0000   0.0000   0.0000
     0.0000   0.0000   0.0000   0.0000   0.0000   0.0000   0.0000   0.0000
     0.0000   0.0000   0.0000   0.0000   0.0000   0.0000   0.0000   0.0000

          k = 0.3333 0.5774 0.0000 (  7047 PWs)   bands (ev):

   -59.9564 -34.5567 -34.5010 -34.3921 -11.5246 -11.4952  -5.3566  -4.4216
    -3.8911  -3.1871  -2.6061  -1.8246   0.3675   2.2708   3.4070   4.1903
     5.6589   7.7478   7.9650   9.8845  11.0105  11.5926  11.9146  12.0546
    12.1795  12.2293  12.3349  12.8846  13.1598  13.2987  13.8316  13.9454
    14.5867  14.6584  14.6696  14.6703  16.6190  17.1093  17.5271  17.8570

     occupation numbers 
     1.0000   1.0000   1.0000   1.0000   1.0000   1.0000   1.0000   1.0000
     1.0000   1.0000   1.0000   1.0000   1.0000   0.0000   0.0000   0.0000
     0.0000   0.0000   0.0000   0.0000   0.0000   0.0000   0.0000   0.0000
     0.0000   0.0000   0.0000   0.0000   0.0000   0.0000   0.0000   0.0000
     0.0000   0.0000   0.0000   0.0000   0.0000   0.0000   0.0000   0.0000

     the Fermi energy is     1.0952 ev
     (compare with:     1.5946 eV, computed in scf)

     Writing output data file run_output/MoS2_2D.save/

     init_run     :      0.43s CPU      0.49s WALL (       1 calls)
     electrons    :      1.78s CPU      1.84s WALL (       1 calls)

     Called by init_run:
     wfcinit      :      0.00s CPU      0.01s WALL (       1 calls)
     wfcinit:atom :      0.00s CPU      0.00s WALL (       3 calls)
     wfcinit:wfcr :      0.13s CPU      0.13s WALL (       3 calls)
     potinit      :      0.05s CPU      0.07s WALL (       1 calls)
     hinit0       :      0.22s CPU      0.23s WALL (       1 calls)

     Called by electrons:
     c_bands      :      1.78s CPU      1.83s WALL (       1 calls)
     v_of_rho     :      0.01s CPU      0.01s WALL (       1 calls)
     v_h          :      0.00s CPU      0.00s WALL (       1 calls)
     v_xc         :      0.00s CPU      0.00s WALL (       1 calls)

     Called by c_bands:
     init_us_2    :      0.00s CPU      0.00s WALL (       3 calls)
     cegterg      :      1.24s CPU      1.28s WALL (       3 calls)

     Called by sum_band:

     Called by *egterg:
     cdiaghg      :      0.23s CPU      0.24s WALL (      40 calls)
     cegterg:over :      0.07s CPU      0.07s WALL (      37 calls)
     cegterg:upda :      0.06s CPU      0.07s WALL (      37 calls)
     cegterg:last :      0.02s CPU      0.02s WALL (       7 calls)
     cdiaghg:chol :      0.02s CPU      0.02s WALL (      40 calls)
     cdiaghg:inve :      0.00s CPU      0.00s WALL (      40 calls)
     cdiaghg:para :      0.04s CPU      0.04s WALL (      80 calls)
     h_psi        :      0.96s CPU      0.98s WALL (      43 calls)
     g_psi        :      0.01s CPU      0.01s WALL (      37 calls)

     Called by h_psi:
     h_psi:calbec :      0.01s CPU      0.01s WALL (      43 calls)
     vloc_psi     :      0.93s CPU      0.95s WALL (      43 calls)
     add_vuspsi   :      0.01s CPU      0.01s WALL (      43 calls)

     General routines
     calbec       :      0.01s CPU      0.01s WALL (      43 calls)
     fft          :      0.01s CPU      0.01s WALL (       4 calls)
     fftw         :      0.76s CPU      0.78s WALL (    1932 calls)
     davcio       :      0.00s CPU      0.00s WALL (       6 calls)

     Parallel routines
     fft_scatt_xy :      0.13s CPU      0.13s WALL (    1936 calls)
     fft_scatt_yz :      0.14s CPU      0.14s WALL (    1936 calls)

     PWSCF        :      2.75s CPU      4.46s WALL


   This run was terminated on:  16:28:33  23Dec2021            

=------------------------------------------------------------------------------=
   JOB DONE.
=------------------------------------------------------------------------------=
