
     Program PWSCF v.6.7MaX starts on  6Oct2021 at 10:32:45 

     This program is part of the open-source Quantum ESPRESSO suite
     for quantum simulation of materials; please cite
         "P. Giannozzi et al., J. Phys.:Condens. Matter 21 395502 (2009);
         "P. Giannozzi et al., J. Phys.:Condens. Matter 29 465901 (2017);
          URL http://www.quantum-espresso.org", 
     in publications or presentations arising from this work. More details at
     http://www.quantum-espresso.org/quote

     Parallel version (MPI), running on    84 processors

     MPI processes distributed on     3 nodes
     K-points division:     npool     =       7
     R & G space division:  proc/nbgrp/npool/nimage =      12
     Waiting for input...
     Reading input from standard input

     Current dimensions of program PWSCF are:
     Max number of different atomic species (ntypx) = 10
     Max number of k-points (npk) =  40000
     Max angular momentum in pseudopotentials (lmaxx) =  3

     Atomic positions and unit cell read from directory:
     run_output/AlAs.save/
     Atomic positions from file used, from input discarded


     Subspace diagonalization in iterative solution of the eigenvalue problem:
     one sub-group per band group will be used
     scalapack distributed-memory algorithm (size of sub-group:  3*  3 procs)


     Parallelization info
     --------------------
     sticks:   dense  smooth     PW     G-vecs:    dense   smooth      PW
     Min          53      53     16                  867      867     151
     Max          54      54     17                  869      869     154
     Sum         637     637    199                10417    10417    1837



     bravais-lattice index     =            2
     lattice parameter (alat)  =      10.6959  a.u.
     unit-cell volume          =     305.9088 (a.u.)^3
     number of atoms/cell      =            2
     number of atomic types    =            2
     number of electrons       =         8.00
     number of Kohn-Sham states=           15
     kinetic-energy cutoff     =      40.0000  Ry
     charge density cutoff     =     160.0000  Ry
     Exchange-correlation= SLA  PZ   NOGX NOGC
                           (   1   1   0   0   0   0   0)

     celldm(1)=  10.695900  celldm(2)=   0.000000  celldm(3)=   0.000000
     celldm(4)=   0.000000  celldm(5)=   0.000000  celldm(6)=   0.000000

     crystal axes: (cart. coord. in units of alat)
               a(1) = (  -0.500000   0.000000   0.500000 )  
               a(2) = (   0.000000   0.500000   0.500000 )  
               a(3) = (  -0.500000   0.500000   0.000000 )  

     reciprocal axes: (cart. coord. in units 2 pi/alat)
               b(1) = ( -1.000000 -1.000000  1.000000 )  
               b(2) = (  1.000000  1.000000  1.000000 )  
               b(3) = ( -1.000000  1.000000 -1.000000 )  


     PseudoPot. # 1 for Al read from file:
     PPs/Al.pz-vbc.UPF
     MD5 check sum: f06ceae8da0fe5c02c98e3688433298c
     Pseudo is Norm-conserving, Zval =  3.0
     Generated by new atomic code, or converted to UPF format
     Using radial grid of  171 points,  2 beta functions with: 
                l(1) =   0
                l(2) =   1

     PseudoPot. # 2 for As read from file:
     PPs/As.pz-bhs.UPF
     MD5 check sum: 2c53d8691f3db84e0fbdf898b12bc293
     Pseudo is Norm-conserving, Zval =  5.0
     Generated by new atomic code, or converted to UPF format
     Using radial grid of  525 points,  2 beta functions with: 
                l(1) =   0
                l(2) =   1

     atomic species   valence    mass     pseudopotential
        Al             3.00     1.00000     Al( 1.00)
        As             5.00     1.00000     As( 1.00)

     24 Sym. Ops. (no inversion) found


                                    s                        frac. trans.

      isym =  1     identity                                     

 cryst.   s( 1) = (     1          0          0      )
                  (     0          1          0      )
                  (     0          0          1      )

 cart.    s( 1) = (  1.0000000  0.0000000  0.0000000 )
                  (  0.0000000  1.0000000  0.0000000 )
                  (  0.0000000  0.0000000  1.0000000 )


      isym =  2     180 deg rotation - cart. axis [0,0,1]        

 cryst.   s( 2) = (     0          1         -1      )
                  (     1          0         -1      )
                  (     0          0         -1      )

 cart.    s( 2) = ( -1.0000000  0.0000000  0.0000000 )
                  (  0.0000000 -1.0000000  0.0000000 )
                  (  0.0000000  0.0000000  1.0000000 )


      isym =  3     180 deg rotation - cart. axis [0,1,0]        

 cryst.   s( 3) = (    -1          0          0      )
                  (    -1          0          1      )
                  (    -1          1          0      )

 cart.    s( 3) = ( -1.0000000  0.0000000  0.0000000 )
                  (  0.0000000  1.0000000  0.0000000 )
                  (  0.0000000  0.0000000 -1.0000000 )


      isym =  4     180 deg rotation - cart. axis [1,0,0]        

 cryst.   s( 4) = (     0         -1          1      )
                  (     0         -1          0      )
                  (     1         -1          0      )

 cart.    s( 4) = (  1.0000000  0.0000000  0.0000000 )
                  (  0.0000000 -1.0000000  0.0000000 )
                  (  0.0000000  0.0000000 -1.0000000 )


      isym =  5     120 deg rotation - cart. axis [-1,-1,-1]     

 cryst.   s( 5) = (    -1          0          1      )
                  (    -1          1          0      )
                  (    -1          0          0      )

 cart.    s( 5) = (  0.0000000  1.0000000  0.0000000 )
                  (  0.0000000  0.0000000  1.0000000 )
                  (  1.0000000  0.0000000  0.0000000 )


      isym =  6     120 deg rotation - cart. axis [-1,1,1]       

 cryst.   s( 6) = (     0          1          0      )
                  (     0          0          1      )
                  (     1          0          0      )

 cart.    s( 6) = (  0.0000000 -1.0000000  0.0000000 )
                  (  0.0000000  0.0000000  1.0000000 )
                  ( -1.0000000  0.0000000  0.0000000 )


      isym =  7     120 deg rotation - cart. axis [1,1,-1]       

 cryst.   s( 7) = (     1          0         -1      )
                  (     0          0         -1      )
                  (     0          1         -1      )

 cart.    s( 7) = (  0.0000000  1.0000000  0.0000000 )
                  (  0.0000000  0.0000000 -1.0000000 )
                  ( -1.0000000  0.0000000  0.0000000 )


      isym =  8     120 deg rotation - cart. axis [1,-1,1]       

 cryst.   s( 8) = (     0         -1          0      )
                  (     1         -1          0      )
                  (     0         -1          1      )

 cart.    s( 8) = (  0.0000000 -1.0000000  0.0000000 )
                  (  0.0000000  0.0000000 -1.0000000 )
                  (  1.0000000  0.0000000  0.0000000 )


      isym =  9     120 deg rotation - cart. axis [1,1,1]        

 cryst.   s( 9) = (     0          0         -1      )
                  (     0          1         -1      )
                  (     1          0         -1      )

 cart.    s( 9) = (  0.0000000  0.0000000  1.0000000 )
                  (  1.0000000  0.0000000  0.0000000 )
                  (  0.0000000  1.0000000  0.0000000 )


      isym = 10     120 deg rotation - cart. axis [-1,1,-1]      

 cryst.   s(10) = (    -1          1          0      )
                  (    -1          0          0      )
                  (    -1          0          1      )

 cart.    s(10) = (  0.0000000  0.0000000  1.0000000 )
                  ( -1.0000000  0.0000000  0.0000000 )
                  (  0.0000000 -1.0000000  0.0000000 )


      isym = 11     120 deg rotation - cart. axis [1,-1,-1]      

 cryst.   s(11) = (     0          0          1      )
                  (     1          0          0      )
                  (     0          1          0      )

 cart.    s(11) = (  0.0000000  0.0000000 -1.0000000 )
                  ( -1.0000000  0.0000000  0.0000000 )
                  (  0.0000000  1.0000000  0.0000000 )


      isym = 12     120 deg rotation - cart. axis [-1,-1,1]      

 cryst.   s(12) = (     1         -1          0      )
                  (     0         -1          1      )
                  (     0         -1          0      )

 cart.    s(12) = (  0.0000000  0.0000000 -1.0000000 )
                  (  1.0000000  0.0000000  0.0000000 )
                  (  0.0000000 -1.0000000  0.0000000 )


      isym = 13     inv. 180 deg rotation - cart. axis [1,1,0]   

 cryst.   s(13) = (     0          1          0      )
                  (     1          0          0      )
                  (     0          0          1      )

 cart.    s(13) = (  0.0000000 -1.0000000  0.0000000 )
                  ( -1.0000000  0.0000000  0.0000000 )
                  (  0.0000000  0.0000000  1.0000000 )


      isym = 14     inv. 180 deg rotation - cart. axis [1,-1,0]  

 cryst.   s(14) = (     1          0         -1      )
                  (     0          1         -1      )
                  (     0          0         -1      )

 cart.    s(14) = (  0.0000000  1.0000000  0.0000000 )
                  (  1.0000000  0.0000000  0.0000000 )
                  (  0.0000000  0.0000000  1.0000000 )


      isym = 15     inv.  90 deg rotation - cart. axis [0,0,-1]  

 cryst.   s(15) = (     0         -1          0      )
                  (     0         -1          1      )
                  (     1         -1          0      )

 cart.    s(15) = (  0.0000000 -1.0000000  0.0000000 )
                  (  1.0000000  0.0000000  0.0000000 )
                  (  0.0000000  0.0000000 -1.0000000 )


      isym = 16     inv.  90 deg rotation - cart. axis [0,0,1]   

 cryst.   s(16) = (    -1          0          1      )
                  (    -1          0          0      )
                  (    -1          1          0      )

 cart.    s(16) = (  0.0000000  1.0000000  0.0000000 )
                  ( -1.0000000  0.0000000  0.0000000 )
                  (  0.0000000  0.0000000 -1.0000000 )


      isym = 17     inv. 180 deg rotation - cart. axis [1,0,1]   

 cryst.   s(17) = (     1          0          0      )
                  (     0          0          1      )
                  (     0          1          0      )

 cart.    s(17) = (  0.0000000  0.0000000 -1.0000000 )
                  (  0.0000000  1.0000000  0.0000000 )
                  ( -1.0000000  0.0000000  0.0000000 )


      isym = 18     inv. 180 deg rotation - cart. axis [-1,0,1]  

 cryst.   s(18) = (    -1          0          0      )
                  (    -1          1          0      )
                  (    -1          0          1      )

 cart.    s(18) = (  0.0000000  0.0000000  1.0000000 )
                  (  0.0000000  1.0000000  0.0000000 )
                  (  1.0000000  0.0000000  0.0000000 )


      isym = 19     inv.  90 deg rotation - cart. axis [0,1,0]   

 cryst.   s(19) = (     0         -1          1      )
                  (     1         -1          0      )
                  (     0         -1          0      )

 cart.    s(19) = (  0.0000000  0.0000000 -1.0000000 )
                  (  0.0000000 -1.0000000  0.0000000 )
                  (  1.0000000  0.0000000  0.0000000 )


      isym = 20     inv.  90 deg rotation - cart. axis [0,-1,0]  

 cryst.   s(20) = (     0          1         -1      )
                  (     0          0         -1      )
                  (     1          0         -1      )

 cart.    s(20) = (  0.0000000  0.0000000  1.0000000 )
                  (  0.0000000 -1.0000000  0.0000000 )
                  ( -1.0000000  0.0000000  0.0000000 )


      isym = 21     inv. 180 deg rotation - cart. axis [0,1,1]   

 cryst.   s(21) = (     1         -1          0      )
                  (     0         -1          0      )
                  (     0         -1          1      )

 cart.    s(21) = (  1.0000000  0.0000000  0.0000000 )
                  (  0.0000000  0.0000000 -1.0000000 )
                  (  0.0000000 -1.0000000  0.0000000 )


      isym = 22     inv. 180 deg rotation - cart. axis [0,1,-1]  

 cryst.   s(22) = (     0          0          1      )
                  (     0          1          0      )
                  (     1          0          0      )

 cart.    s(22) = (  1.0000000  0.0000000  0.0000000 )
                  (  0.0000000  0.0000000  1.0000000 )
                  (  0.0000000  1.0000000  0.0000000 )


      isym = 23     inv.  90 deg rotation - cart. axis [-1,0,0]  

 cryst.   s(23) = (     0          0         -1      )
                  (     1          0         -1      )
                  (     0          1         -1      )

 cart.    s(23) = ( -1.0000000  0.0000000  0.0000000 )
                  (  0.0000000  0.0000000 -1.0000000 )
                  (  0.0000000  1.0000000  0.0000000 )


      isym = 24     inv.  90 deg rotation - cart. axis [1,0,0]   

 cryst.   s(24) = (    -1          1          0      )
                  (    -1          0          1      )
                  (    -1          0          0      )

 cart.    s(24) = ( -1.0000000  0.0000000  0.0000000 )
                  (  0.0000000  0.0000000  1.0000000 )
                  (  0.0000000 -1.0000000  0.0000000 )


     point group T_d (-43m) 
     there are  5 classes
     the character table:

       E     8C3   3C2   6S4   6s_d 
A_1    1.00  1.00  1.00  1.00  1.00
A_2    1.00  1.00  1.00 -1.00 -1.00
E      2.00 -1.00  2.00  0.00  0.00
T_1    3.00  0.00 -1.00  1.00 -1.00
T_2    3.00  0.00 -1.00 -1.00  1.00

     the symmetry operations in each class and the name of the first element:

     E        1
          identity                                               
     8C3      5    7    8    6   12    9   10   11
          120 deg rotation - cart. axis [-1,-1,-1]               
     3C2      2    3    4
          180 deg rotation - cart. axis [0,0,1]                  
     6S4     15   16   20   19   23   24
          inv.  90 deg rotation - cart. axis [0,0,-1]            
     6s_d    13   14   17   18   21   22
          inv. 180 deg rotation - cart. axis [1,1,0]             

   Cartesian axes

     site n.     atom                  positions (alat units)
         1           Al  tau(   1) = (   0.0000000   0.0000000   0.0000000  )
         2           As  tau(   2) = (  -0.2500000   0.2500000   0.2500000  )

   Crystallographic axes

     site n.     atom                  positions (cryst. coord.)
         1           Al  tau(   1) = (  0.0000000  0.0000000  0.0000000  )
         2           As  tau(   2) = (  0.2500000  0.2500000  0.2500000  )

     number of k points=    47
                       cart. coord. in units 2pi/alat
        k(    1) = (   0.0000000   0.0000000   0.0000000), wk =   0.0020000
        k(    2) = (  -0.1000000   0.1000000  -0.1000000), wk =   0.0160000
        k(    3) = (  -0.2000000   0.2000000  -0.2000000), wk =   0.0160000
        k(    4) = (  -0.3000000   0.3000000  -0.3000000), wk =   0.0160000
        k(    5) = (  -0.4000000   0.4000000  -0.4000000), wk =   0.0160000
        k(    6) = (   0.5000000  -0.5000000   0.5000000), wk =   0.0080000
        k(    7) = (   0.0000000   0.2000000   0.0000000), wk =   0.0120000
        k(    8) = (  -0.1000000   0.3000000  -0.1000000), wk =   0.0480000
        k(    9) = (  -0.2000000   0.4000000  -0.2000000), wk =   0.0480000
        k(   10) = (  -0.3000000   0.5000000  -0.3000000), wk =   0.0480000
        k(   11) = (   0.6000000  -0.4000000   0.6000000), wk =   0.0480000
        k(   12) = (   0.5000000  -0.3000000   0.5000000), wk =   0.0480000
        k(   13) = (   0.4000000  -0.2000000   0.4000000), wk =   0.0480000
        k(   14) = (   0.3000000  -0.1000000   0.3000000), wk =   0.0480000
        k(   15) = (   0.2000000   0.0000000   0.2000000), wk =   0.0240000
        k(   16) = (   0.0000000   0.4000000   0.0000000), wk =   0.0120000
        k(   17) = (  -0.1000000   0.5000000  -0.1000000), wk =   0.0480000
        k(   18) = (  -0.2000000   0.6000000  -0.2000000), wk =   0.0480000
        k(   19) = (   0.7000000  -0.3000000   0.7000000), wk =   0.0480000
        k(   20) = (   0.6000000  -0.2000000   0.6000000), wk =   0.0480000
        k(   21) = (   0.5000000  -0.1000000   0.5000000), wk =   0.0480000
        k(   22) = (   0.4000000   0.0000000   0.4000000), wk =   0.0240000
        k(   23) = (   0.0000000   0.6000000   0.0000000), wk =   0.0120000
        k(   24) = (  -0.1000000   0.7000000  -0.1000000), wk =   0.0480000
        k(   25) = (   0.8000000  -0.2000000   0.8000000), wk =   0.0480000
        k(   26) = (   0.7000000  -0.1000000   0.7000000), wk =   0.0480000
        k(   27) = (   0.6000000  -0.0000000   0.6000000), wk =   0.0240000
        k(   28) = (   0.0000000   0.8000000   0.0000000), wk =   0.0120000
        k(   29) = (   0.9000000  -0.1000000   0.9000000), wk =   0.0480000
        k(   30) = (   0.8000000   0.0000000   0.8000000), wk =   0.0240000
        k(   31) = (   0.0000000  -1.0000000   0.0000000), wk =   0.0060000
        k(   32) = (  -0.2000000   0.4000000   0.0000000), wk =   0.0480000
        k(   33) = (  -0.3000000   0.5000000  -0.1000000), wk =   0.0960000
        k(   34) = (   0.6000000  -0.4000000   0.8000000), wk =   0.0960000
        k(   35) = (   0.5000000  -0.3000000   0.7000000), wk =   0.0480000
        k(   36) = (  -0.2000000   0.6000000   0.0000000), wk =   0.0480000
        k(   37) = (   0.7000000  -0.3000000   0.9000000), wk =   0.0960000
        k(   38) = (   0.6000000  -0.2000000   0.8000000), wk =   0.0960000
        k(   39) = (   0.5000000  -0.1000000   0.7000000), wk =   0.0960000
        k(   40) = (   0.4000000   0.0000000   0.6000000), wk =   0.0480000
        k(   41) = (   0.8000000  -0.2000000   1.0000000), wk =   0.0480000
        k(   42) = (   0.7000000  -0.1000000   0.9000000), wk =   0.0960000
        k(   43) = (   0.6000000   0.0000000   0.8000000), wk =   0.0480000
        k(   44) = (  -0.2000000  -1.0000000   0.0000000), wk =   0.0240000
        k(   45) = (   0.6000000  -0.2000000   1.0000000), wk =   0.0480000
        k(   46) = (   0.5000000  -0.1000000   0.9000000), wk =   0.0480000
        k(   47) = (  -0.4000000  -1.0000000   0.0000000), wk =   0.0240000

                       cryst. coord.
        k(    1) = (   0.0000000   0.0000000   0.0000000), wk =   0.0020000
        k(    2) = (   0.0000000   0.0000000   0.1000000), wk =   0.0160000
        k(    3) = (   0.0000000   0.0000000   0.2000000), wk =   0.0160000
        k(    4) = (   0.0000000   0.0000000   0.3000000), wk =   0.0160000
        k(    5) = (   0.0000000   0.0000000   0.4000000), wk =   0.0160000
        k(    6) = (   0.0000000   0.0000000  -0.5000000), wk =   0.0080000
        k(    7) = (   0.0000000   0.1000000   0.1000000), wk =   0.0120000
        k(    8) = (   0.0000000   0.1000000   0.2000000), wk =   0.0480000
        k(    9) = (   0.0000000   0.1000000   0.3000000), wk =   0.0480000
        k(   10) = (   0.0000000   0.1000000   0.4000000), wk =   0.0480000
        k(   11) = (   0.0000000   0.1000000  -0.5000000), wk =   0.0480000
        k(   12) = (   0.0000000   0.1000000  -0.4000000), wk =   0.0480000
        k(   13) = (   0.0000000   0.1000000  -0.3000000), wk =   0.0480000
        k(   14) = (   0.0000000   0.1000000  -0.2000000), wk =   0.0480000
        k(   15) = (   0.0000000   0.1000000  -0.1000000), wk =   0.0240000
        k(   16) = (   0.0000000   0.2000000   0.2000000), wk =   0.0120000
        k(   17) = (   0.0000000   0.2000000   0.3000000), wk =   0.0480000
        k(   18) = (   0.0000000   0.2000000   0.4000000), wk =   0.0480000
        k(   19) = (   0.0000000   0.2000000  -0.5000000), wk =   0.0480000
        k(   20) = (   0.0000000   0.2000000  -0.4000000), wk =   0.0480000
        k(   21) = (   0.0000000   0.2000000  -0.3000000), wk =   0.0480000
        k(   22) = (   0.0000000   0.2000000  -0.2000000), wk =   0.0240000
        k(   23) = (   0.0000000   0.3000000   0.3000000), wk =   0.0120000
        k(   24) = (   0.0000000   0.3000000   0.4000000), wk =   0.0480000
        k(   25) = (   0.0000000   0.3000000  -0.5000000), wk =   0.0480000
        k(   26) = (   0.0000000   0.3000000  -0.4000000), wk =   0.0480000
        k(   27) = (   0.0000000   0.3000000  -0.3000000), wk =   0.0240000
        k(   28) = (   0.0000000   0.4000000   0.4000000), wk =   0.0120000
        k(   29) = (   0.0000000   0.4000000  -0.5000000), wk =   0.0480000
        k(   30) = (   0.0000000   0.4000000  -0.4000000), wk =   0.0240000
        k(   31) = (   0.0000000  -0.5000000  -0.5000000), wk =   0.0060000
        k(   32) = (   0.1000000   0.2000000   0.3000000), wk =   0.0480000
        k(   33) = (   0.1000000   0.2000000   0.4000000), wk =   0.0960000
        k(   34) = (   0.1000000   0.2000000  -0.5000000), wk =   0.0960000
        k(   35) = (   0.1000000   0.2000000  -0.4000000), wk =   0.0480000
        k(   36) = (   0.1000000   0.3000000   0.4000000), wk =   0.0480000
        k(   37) = (   0.1000000   0.3000000  -0.5000000), wk =   0.0960000
        k(   38) = (   0.1000000   0.3000000  -0.4000000), wk =   0.0960000
        k(   39) = (   0.1000000   0.3000000  -0.3000000), wk =   0.0960000
        k(   40) = (   0.1000000   0.3000000  -0.2000000), wk =   0.0480000
        k(   41) = (   0.1000000   0.4000000  -0.5000000), wk =   0.0480000
        k(   42) = (   0.1000000   0.4000000  -0.4000000), wk =   0.0960000
        k(   43) = (   0.1000000   0.4000000  -0.3000000), wk =   0.0480000
        k(   44) = (   0.1000000  -0.5000000  -0.4000000), wk =   0.0240000
        k(   45) = (   0.2000000   0.4000000  -0.4000000), wk =   0.0480000
        k(   46) = (   0.2000000   0.4000000  -0.3000000), wk =   0.0480000
        k(   47) = (   0.2000000  -0.5000000  -0.3000000), wk =   0.0240000

     Dense  grid:    10417 G-vectors     FFT dimensions: (  32,  32,  32)

     Dynamical RAM for                 wfc:       0.02 MB

     Dynamical RAM for     wfc (w. buffer):       0.02 MB

     Dynamical RAM for           str. fact:       0.03 MB

     Dynamical RAM for           local pot:       0.00 MB

     Dynamical RAM for          nlocal pot:       0.01 MB

     Dynamical RAM for                qrad:       0.17 MB

     Dynamical RAM for          rho,v,vnew:       0.11 MB

     Dynamical RAM for           G-vectors:       0.06 MB

     Dynamical RAM for          h,s,v(r/c):       0.00 MB

     Dynamical RAM for          <psi|beta>:       0.00 MB

     Dynamical RAM for      wfcinit/wfcrot:       0.05 MB

     Estimated static dynamical RAM per process >       0.56 MB

     Estimated max dynamical RAM per process >       0.62 MB

     Estimated total dynamical RAM >      51.80 MB

     The potential is recalculated from file :
     run_output/AlAs.save/charge-density

     Starting wfcs are    8 randomized atomic wfcs +    7 random wfcs

     Band Structure Calculation
     CG style diagonalization

     Computing kpt #:     1  of     7 on this pool
     total cpu time spent up to now is        0.5 secs

     Computing kpt #:     2  of     7 on this pool
     total cpu time spent up to now is        0.6 secs

     Computing kpt #:     3  of     7 on this pool
     total cpu time spent up to now is        0.8 secs

     Computing kpt #:     4  of     7 on this pool
     total cpu time spent up to now is        1.0 secs

     Computing kpt #:     5  of     7 on this pool
     total cpu time spent up to now is        1.1 secs

     Computing kpt #:     6  of     7 on this pool
     total cpu time spent up to now is        1.2 secs

     Computing kpt #:     7  of     7 on this pool
     total cpu time spent up to now is        1.3 secs

     ethr =  1.00E-06,  avg # of iterations = 23.7

     total cpu time spent up to now is        1.4 secs

     End of band structure calculation

          k = 0.0000 0.0000 0.0000 (  1291 PWs)   bands (ev):

    -7.2396   4.5964   4.5964   4.5964   6.7261   8.8967   8.8967   8.8967
    13.3887  13.6212  13.6212  16.0232  16.0232  16.0232  19.3682

     occupation numbers 
     1.0000   1.0000   1.0000   1.0000   0.0000   0.0000   0.0000   0.0000
     0.0000   0.0000   0.0000   0.0000   0.0000   0.0000   0.0000

          k =-0.1000 0.1000-0.1000 (  1309 PWs)   bands (ev):

    -7.1427   3.5738   4.4931   4.4931   7.3537   9.0819   9.0847   9.0847
    13.1537  13.1537  13.9022  15.5831  16.9141  16.9141  20.2371

     occupation numbers 
     1.0000   1.0000   1.0000   1.0000   0.0000   0.0000   0.0000   0.0000
     0.0000   0.0000   0.0000   0.0000   0.0000   0.0000   0.0000

          k =-0.2000 0.2000-0.2000 (  1324 PWs)   bands (ev):

    -6.8650   1.9832   4.2598   4.2598   7.4030   9.4234   9.4234  10.2400
    12.7688  12.7688  14.1934  15.9854  18.6847  18.6847  22.0163

     occupation numbers 
     1.0000   1.0000   1.0000   1.0000   0.0000   0.0000   0.0000   0.0000
     0.0000   0.0000   0.0000   0.0000   0.0000   0.0000   0.0000

          k =-0.3000 0.3000-0.3000 (  1320 PWs)   bands (ev):

    -6.4553   0.5304   4.0227   4.0227   7.0825   9.4875   9.4875  11.6557
    13.2629  13.2629  13.8492  17.7843  20.2291  20.2291  22.0026

     occupation numbers 
     1.0000   1.0000   1.0000   1.0000   0.0000   0.0000   0.0000   0.0000
     0.0000   0.0000   0.0000   0.0000   0.0000   0.0000   0.0000

          k =-0.4000 0.4000-0.4000 (  1302 PWs)   bands (ev):

    -6.0361  -0.5413   3.8594   3.8594   6.8364   9.3364   9.3364  12.2370
    14.5402  14.5777  14.5777  18.3985  18.5436  18.5435  22.0512

     occupation numbers 
     1.0000   1.0000   1.0000   1.0000   0.0000   0.0000   0.0000   0.0000
     0.0000   0.0000   0.0000   0.0000   0.0000   0.0000   0.0000

          k = 0.5000-0.5000 0.5000 (  1308 PWs)   bands (ev):

    -5.8418  -0.9570   3.8022   3.8022   6.7491   9.2554   9.2554  12.2439
    15.4636  16.1837  16.1837  16.6361  16.6361  17.6150  24.1426

     occupation numbers 
     1.0000   1.0000   1.0000   1.0000   0.0000   0.0000   0.0000   0.0000
     0.0000   0.0000   0.0000   0.0000   0.0000   0.0000   0.0000

          k = 0.0000 0.2000 0.0000 (  1299 PWs)   bands (ev):

    -7.1101   3.5953   4.2653   4.2653   7.7670   8.4460   9.4216   9.4216
    12.3518  13.8036  14.1196  16.3324  16.3324  16.8310  20.6527

     occupation numbers 
     1.0000   1.0000   1.0000   1.0000   0.0000   0.0000   0.0000   0.0000
     0.0000   0.0000   0.0000   0.0000   0.0000   0.0000   0.0000

          k =-0.1000 0.3000-0.1000 (  1315 PWs)   bands (ev):

    -6.8920   2.3792   3.9656   4.0575   8.0248   8.5712   9.9150  10.0630
    11.9045  13.6925  14.8943  16.0401  17.4285  18.4363  22.2007

     occupation numbers 
     1.0000   1.0000   1.0000   1.0000   0.0000   0.0000   0.0000   0.0000
     0.0000   0.0000   0.0000   0.0000   0.0000   0.0000   0.0000

          k =-0.2000 0.4000-0.2000 (  1312 PWs)   bands (ev):

    -6.5227   0.9705   3.7233   3.7442   7.7282   9.0713  10.1083  10.5184
    12.7599  13.9896  14.6665  17.3197  19.1451  20.4895  21.4623

     occupation numbers 
     1.0000   1.0000   1.0000   1.0000   0.0000   0.0000   0.0000   0.0000
     0.0000   0.0000   0.0000   0.0000   0.0000   0.0000   0.0000

          k =-0.3000 0.5000-0.3000 (  1308 PWs)   bands (ev):

    -6.0945  -0.1964   3.4152   3.6028   7.4782   9.0728   9.9171  11.5128
    13.6329  15.0103  15.1352  18.1551  18.3004  20.4386  21.9265

     occupation numbers 
     1.0000   1.0000   1.0000   1.0000   0.0000   0.0000   0.0000   0.0000
     0.0000   0.0000   0.0000   0.0000   0.0000   0.0000   0.0000

          k = 0.6000-0.4000 0.6000 (  1314 PWs)   bands (ev):

    -5.8036  -0.8349   3.1758   3.6233   7.3648   9.0186   9.6715  12.4819
    14.1516  15.9405  16.0566  16.9418  17.3449  19.2443  23.4151

     occupation numbers 
     1.0000   1.0000   1.0000   1.0000   0.0000   0.0000   0.0000   0.0000
     0.0000   0.0000   0.0000   0.0000   0.0000   0.0000   0.0000

          k = 0.5000-0.3000 0.5000 (  1307 PWs)   bands (ev):

    -5.8702  -0.6959   3.0775   3.7758   7.4115   9.1435   9.5529  12.5108
    14.2018  14.5194  16.0234  17.2619  18.8686  18.9493  22.3503

     occupation numbers 
     1.0000   1.0000   1.0000   1.0000   0.0000   0.0000   0.0000   0.0000
     0.0000   0.0000   0.0000   0.0000   0.0000   0.0000   0.0000

          k = 0.4000-0.2000 0.4000 (  1315 PWs)   bands (ev):

    -6.2363   0.1540   3.1480   4.0267   7.6082   9.4092   9.5496  11.6191
    12.7474  14.1952  15.4312  17.7806  19.2899  20.8121  21.0295

     occupation numbers 
     1.0000   1.0000   1.0000   1.0000   0.0000   0.0000   0.0000   0.0000
     0.0000   0.0000   0.0000   0.0000   0.0000   0.0000   0.0000

          k = 0.3000-0.1000 0.3000 (  1321 PWs)   bands (ev):

    -6.6604   1.4147   3.4073   4.3090   7.8976   9.4103   9.4447  10.6017
    12.0606  13.6433  15.0161  16.6619  18.3892  20.4141  21.2984

     occupation numbers 
     1.0000   1.0000   1.0000   1.0000   0.0000   0.0000   0.0000   0.0000
     0.0000   0.0000   0.0000   0.0000   0.0000   0.0000   0.0000

          k = 0.2000 0.0000 0.2000 (  1315 PWs)   bands (ev):

    -6.9851   2.7291   3.8996   4.5074   7.8961   8.9154   9.1508   9.9745
    12.3301  13.1970  14.6507  16.0049  16.7329  18.4883  21.4137

     occupation numbers 
     1.0000   1.0000   1.0000   1.0000   0.0000   0.0000   0.0000   0.0000
     0.0000   0.0000   0.0000   0.0000   0.0000   0.0000   0.0000

          k = 0.0000 0.4000 0.0000 (  1307 PWs)   bands (ev):

    -6.7373   2.1057   3.6082   3.6082   7.5856   8.6597  10.6434  10.6434
    11.4872  14.3503  15.7607  17.2563  17.2563  17.8639  23.3671

     occupation numbers 
     1.0000   1.0000   1.0000   1.0000   0.0000   0.0000   0.0000   0.0000
     0.0000   0.0000   0.0000   0.0000   0.0000   0.0000   0.0000

          k =-0.1000 0.5000-0.1000 (  1317 PWs)   bands (ev):

    -6.4253   1.1548   3.2095   3.3290   7.4550   8.6192  10.5873  11.1370
    12.7790  14.7316  16.2821  17.4854  18.4084  19.7410  21.3310

     occupation numbers 
     1.0000   1.0000   1.0000   1.0000   0.0000   0.0000   0.0000   0.0000
     0.0000   0.0000   0.0000   0.0000   0.0000   0.0000   0.0000

          k =-0.2000 0.6000-0.2000 (  1308 PWs)   bands (ev):

    -6.0258   0.1465   2.6757   3.1954   7.4206   9.2941  10.3232  11.0766
    14.2999  15.7411  16.1194  18.1867  18.2380  20.4391  21.0525

     occupation numbers 
     1.0000   1.0000   1.0000   1.0000   0.0000   0.0000   0.0000   0.0000
     0.0000   0.0000   0.0000   0.0000   0.0000   0.0000   0.0000

          k = 0.7000-0.3000 0.7000 (  1308 PWs)   bands (ev):

    -5.6927  -0.5464   2.2149   3.2290   7.4146   9.7479  10.7670  11.0576
    14.4096  15.9991  16.7312  17.4791  17.5455  21.6496  22.6008

     occupation numbers 
     1.0000   1.0000   1.0000   1.0000   0.0000   0.0000   0.0000   0.0000
     0.0000   0.0000   0.0000   0.0000   0.0000   0.0000   0.0000

          k = 0.6000-0.2000 0.6000 (  1295 PWs)   bands (ev):

    -5.6415  -0.6339   1.9544   3.4218   7.6012   9.7185  10.4924  12.3875
    13.6360  14.0622  16.3505  18.7823  19.4621  20.2907  21.9838

     occupation numbers 
     1.0000   1.0000   1.0000   1.0000   0.0000   0.0000   0.0000   0.0000
     0.0000   0.0000   0.0000   0.0000   0.0000   0.0000   0.0000

          k = 0.5000-0.1000 0.5000 (  1308 PWs)   bands (ev):

    -5.9141  -0.0929   1.9794   3.7348   7.9670   9.7903  10.2784  11.4278
    12.5461  14.7203  16.6510  17.9385  19.2142  21.0590  21.6171

     occupation numbers 
     1.0000   1.0000   1.0000   1.0000   0.0000   0.0000   0.0000   0.0000
     0.0000   0.0000   0.0000   0.0000   0.0000   0.0000   0.0000

          k = 0.4000 0.0000 0.4000 (  1326 PWs)   bands (ev):

    -6.3138   0.7201   2.4375   4.0819   8.3193   9.6583   9.9007  10.4706
    11.8529  14.9752  16.3835  16.9965  19.0070  19.4723  22.1480

     occupation numbers 
     1.0000   1.0000   1.0000   1.0000   0.0000   0.0000   0.0000   0.0000
     0.0000   0.0000   0.0000   0.0000   0.0000   0.0000   0.0000

          k = 0.0000 0.6000 0.0000 (  1311 PWs)   bands (ev):

    -6.1789   0.7251   3.0051   3.0051   6.7877   7.8511  12.1460  12.1460
    12.9075  15.2596  17.5679  18.6416  18.6416  19.2736  21.0786

     occupation numbers 
     1.0000   1.0000   1.0000   1.0000   0.0000   0.0000   0.0000   0.0000
     0.0000   0.0000   0.0000   0.0000   0.0000   0.0000   0.0000

          k =-0.1000 0.7000-0.1000 (  1301 PWs)   bands (ev):

    -5.8401   0.0676   2.5089   2.8310   6.7464   7.8066  12.1086  12.5159
    14.5327  16.1412  17.5017  18.3740  19.1275  19.7965  20.7136

     occupation numbers 
     1.0000   1.0000   1.0000   1.0000   0.0000   0.0000   0.0000   0.0000
     0.0000   0.0000   0.0000   0.0000   0.0000   0.0000   0.0000

          k = 0.8000-0.2000 0.8000 (  1300 PWs)   bands (ev):

    -5.5300  -0.4156   1.7828   2.8356   6.8330   8.8316  11.8388  12.2783
    14.9395  16.1345  17.5740  17.9263  18.6138  21.1494  22.1331

     occupation numbers 
     1.0000   1.0000   1.0000   1.0000   0.0000   0.0000   0.0000   0.0000
     0.0000   0.0000   0.0000   0.0000   0.0000   0.0000   0.0000

          k = 0.7000-0.1000 0.7000 (  1303 PWs)   bands (ev):

    -5.4217  -0.5173   1.2561   3.0173   7.0575  10.3408  11.7597  11.8713
    13.4026  14.2187  18.2620  19.0625  19.9255  21.4458  22.5321

     occupation numbers 
     1.0000   1.0000   1.0000   1.0000   0.0000   0.0000   0.0000   0.0000
     0.0000   0.0000   0.0000   0.0000   0.0000   0.0000   0.0000

          k = 0.6000-0.0000 0.6000 (  1306 PWs)   bands (ev):

    -5.5894  -0.3054   1.2480   3.3440   7.4907  10.9985  11.2520  11.5157
    12.9010  13.0883  18.1707  18.7556  19.9748  21.8353  21.9979

     occupation numbers 
     1.0000   1.0000   1.0000   1.0000   0.0000   0.0000   0.0000   0.0000
     0.0000   0.0000   0.0000   0.0000   0.0000   0.0000   0.0000

          k = 0.0000 0.8000 0.0000 (  1306 PWs)   bands (ev):

    -5.5881  -0.3621   2.6082   2.6082   6.2125   7.0809  13.7159  13.7159
    14.7813  16.5248  18.2583  18.2583  18.4382  20.1936  21.3603

     occupation numbers 
     1.0000   1.0000   1.0000   1.0000   0.0000   0.0000   0.0000   0.0000
     0.0000   0.0000   0.0000   0.0000   0.0000   0.0000   0.0000

          k = 0.9000-0.1000 0.9000 (  1303 PWs)   bands (ev):

    -5.3709  -0.6572   2.1320   2.5659   6.3195   7.3463  13.7655  13.8899
    15.3004  16.5105  17.4864  18.0305  19.2469  19.9652  21.2129

     occupation numbers 
     1.0000   1.0000   1.0000   1.0000   0.0000   0.0000   0.0000   0.0000
     0.0000   0.0000   0.0000   0.0000   0.0000   0.0000   0.0000

          k = 0.8000 0.0000 0.8000 (  1302 PWs)   bands (ev):

    -5.3058  -0.6300   1.4367   2.7098   6.6072   8.6516  13.2218  13.4118
    13.7268  14.9275  18.4496  19.9101  20.3296  20.3301  20.9682

     occupation numbers 
     1.0000   1.0000   1.0000   1.0000   0.0000   0.0000   0.0000   0.0000
     0.0000   0.0000   0.0000   0.0000   0.0000   0.0000   0.0000

          k = 0.0000-1.0000 0.0000 (  1298 PWs)   bands (ev):

    -5.3014  -0.8155   2.4713   2.4713   5.9943   6.8248  14.7331  14.7331
    15.8604  17.1448  17.1448  17.9068  18.1447  18.4556  23.6276

     occupation numbers 
     1.0000   1.0000   1.0000   1.0000   0.0000   0.0000   0.0000   0.0000
     0.0000   0.0000   0.0000   0.0000   0.0000   0.0000   0.0000

          k =-0.2000 0.4000 0.0000 (  1321 PWs)   bands (ev):

    -6.6263   1.5611   3.1953   3.9730   8.2336   8.6708  10.1091  10.3845
    12.1532  14.1026  15.8596  16.5659  17.9189  19.9475  21.3067

     occupation numbers 
     1.0000   1.0000   1.0000   1.0000   0.0000   0.0000   0.0000   0.0000
     0.0000   0.0000   0.0000   0.0000   0.0000   0.0000   0.0000

          k =-0.3000 0.5000-0.1000 (  1309 PWs)   bands (ev):

    -6.2378   0.5117   2.6663   3.7107   8.1867   9.0521  10.0669  10.7312
    12.9237  15.0052  16.0909  17.5029  19.1595  19.8492  21.3176

     occupation numbers 
     1.0000   1.0000   1.0000   1.0000   0.0000   0.0000   0.0000   0.0000
     0.0000   0.0000   0.0000   0.0000   0.0000   0.0000   0.0000

          k = 0.6000-0.4000 0.8000 (  1311 PWs)   bands (ev):

    -5.8469  -0.3818   2.4171   3.4461   8.0503   8.9000  10.5589  11.3366
    13.9042  15.0712  16.3074  17.6139  18.7637  20.7526  21.7811

     occupation numbers 
     1.0000   1.0000   1.0000   1.0000   0.0000   0.0000   0.0000   0.0000
     0.0000   0.0000   0.0000   0.0000   0.0000   0.0000   0.0000

          k = 0.5000-0.3000 0.7000 (  1300 PWs)   bands (ev):

    -5.6685  -0.7414   2.3466   3.3393   8.0045   8.7779  10.5341  12.4589
    13.5042  15.2688  16.3945  17.1844  19.2188  20.0169  23.2686

     occupation numbers 
     1.0000   1.0000   1.0000   1.0000   0.0000   0.0000   0.0000   0.0000
     0.0000   0.0000   0.0000   0.0000   0.0000   0.0000   0.0000

          k =-0.2000 0.6000 0.0000 (  1305 PWs)   bands (ev):

    -6.0956   0.4914   2.5704   3.1348   7.4808   8.4307  10.5829  12.0219
    13.5360  15.6480  17.0302  17.7732  19.2917  19.6147  20.6083

     occupation numbers 
     1.0000   1.0000   1.0000   1.0000   0.0000   0.0000   0.0000   0.0000
     0.0000   0.0000   0.0000   0.0000   0.0000   0.0000   0.0000

          k = 0.7000-0.3000 0.9000 (  1304 PWs)   bands (ev):

    -5.7302  -0.1615   2.0080   2.8781   7.6563   9.1333  10.2411  12.2951
    14.3721  15.6653  17.4765  17.8342  18.9695  20.0769  21.7457

     occupation numbers 
     1.0000   1.0000   1.0000   1.0000   0.0000   0.0000   0.0000   0.0000
     0.0000   0.0000   0.0000   0.0000   0.0000   0.0000   0.0000

          k = 0.6000-0.2000 0.8000 (  1298 PWs)   bands (ev):

    -5.4997  -0.5289   1.6092   2.8339   7.7954   9.6647  10.8465  12.1721
    13.2130  15.8093  17.3429  17.6561  19.8560  21.7902  22.3536

     occupation numbers 
     1.0000   1.0000   1.0000   1.0000   0.0000   0.0000   0.0000   0.0000
     0.0000   0.0000   0.0000   0.0000   0.0000   0.0000   0.0000

          k = 0.5000-0.1000 0.7000 (  1302 PWs)   bands (ev):

    -5.5643  -0.4111   1.4859   3.0309   8.1018   9.5043  11.1039  12.0706
    12.9136  14.4605  17.5178  18.7241  20.2424  20.6188  22.0540

     occupation numbers 
     1.0000   1.0000   1.0000   1.0000   0.0000   0.0000   0.0000   0.0000
     0.0000   0.0000   0.0000   0.0000   0.0000   0.0000   0.0000

          k = 0.4000 0.0000 0.6000 (  1303 PWs)   bands (ev):

    -5.8725   0.0406   1.8080   3.3825   8.5015   9.2481   9.9948  11.6701
    13.0296  14.9652  17.3086  18.3411  18.4685  20.9710  21.3994

     occupation numbers 
     1.0000   1.0000   1.0000   1.0000   0.0000   0.0000   0.0000   0.0000
     0.0000   0.0000   0.0000   0.0000   0.0000   0.0000   0.0000

          k = 0.8000-0.2000 1.0000 (  1313 PWs)   bands (ev):

    -5.5484  -0.3575   2.1882   2.4742   6.9196   7.7874  11.9825  13.7026
    14.8239  16.2035  17.7130  18.4254  19.1827  19.9809  21.3029

     occupation numbers 
     1.0000   1.0000   1.0000   1.0000   0.0000   0.0000   0.0000   0.0000
     0.0000   0.0000   0.0000   0.0000   0.0000   0.0000   0.0000

          k = 0.7000-0.1000 0.9000 (  1302 PWs)   bands (ev):

    -5.3496  -0.5404   1.5578   2.3994   7.2612   8.8028  11.5908  13.2579
    14.0713  16.1431  17.4761  19.1346  20.1997  20.4166  22.1822

     occupation numbers 
     1.0000   1.0000   1.0000   1.0000   0.0000   0.0000   0.0000   0.0000
     0.0000   0.0000   0.0000   0.0000   0.0000   0.0000   0.0000

          k = 0.6000 0.0000 0.8000 (  1298 PWs)   bands (ev):

    -5.3596  -0.4641   1.1581   2.6285   7.6152  10.2685  11.2339  11.7532
    13.5174  14.8193  18.5390  19.4531  20.0788  20.9335  22.1711

     occupation numbers 
     1.0000   1.0000   1.0000   1.0000   0.0000   0.0000   0.0000   0.0000
     0.0000   0.0000   0.0000   0.0000   0.0000   0.0000   0.0000

          k =-0.2000-1.0000 0.0000 (  1298 PWs)   bands (ev):

    -5.2909  -0.7141   2.0920   2.2005   6.7100   7.5700  13.2701  13.8781
    15.0084  16.8126  17.0073  18.4090  19.7758  20.2000  22.1117

     occupation numbers 
     1.0000   1.0000   1.0000   1.0000   0.0000   0.0000   0.0000   0.0000
     0.0000   0.0000   0.0000   0.0000   0.0000   0.0000   0.0000

          k = 0.6000-0.2000 1.0000 (  1294 PWs)   bands (ev):

    -5.4536  -0.3736   1.4973   2.4125   8.4349   9.4453   9.8681  12.9477
    13.6562  15.3548  18.2913  18.9583  19.3944  20.8829  21.1586

     occupation numbers 
     1.0000   1.0000   1.0000   1.0000   0.0000   0.0000   0.0000   0.0000
     0.0000   0.0000   0.0000   0.0000   0.0000   0.0000   0.0000

          k = 0.5000-0.1000 0.9000 (  1302 PWs)   bands (ev):

    -5.3363  -0.4573   1.3225   2.2040   8.6515   9.6018  10.7075  11.3249
    14.0269  16.2133  17.3772  19.0512  20.1539  21.6991  22.1756

     occupation numbers 
     1.0000   1.0000   1.0000   1.0000   0.0000   0.0000   0.0000   0.0000
     0.0000   0.0000   0.0000   0.0000   0.0000   0.0000   0.0000

          k =-0.4000-1.0000 0.0000 (  1302 PWs)   bands (ev):

    -5.2736  -0.5077   1.5332   1.8586   8.2920   9.2940  11.0010  11.5346
    14.9948  16.7589  17.0298  18.6127  20.9641  21.6154  22.3413

     occupation numbers 
     1.0000   1.0000   1.0000   1.0000   0.0000   0.0000   0.0000   0.0000
     0.0000   0.0000   0.0000   0.0000   0.0000   0.0000   0.0000

     highest occupied, lowest unoccupied level (ev):     4.5964    5.9943

     Writing output data file run_output/AlAs.save/

     init_run     :      0.09s CPU      0.10s WALL (       1 calls)
     electrons    :      0.97s CPU      1.00s WALL (       1 calls)

     Called by init_run:
     wfcinit      :      0.00s CPU      0.00s WALL (       1 calls)
     wfcinit:atom :      0.00s CPU      0.00s WALL (       7 calls)
     wfcinit:wfcr :      0.03s CPU      0.03s WALL (       7 calls)
     potinit      :      0.00s CPU      0.01s WALL (       1 calls)
     hinit0       :      0.01s CPU      0.01s WALL (       1 calls)

     Called by electrons:
     c_bands      :      0.97s CPU      0.99s WALL (       1 calls)
     v_of_rho     :      0.00s CPU      0.00s WALL (       1 calls)
     v_h          :      0.00s CPU      0.00s WALL (       1 calls)
     v_xc         :      0.00s CPU      0.00s WALL (       1 calls)

     Called by c_bands:
     init_us_2    :      0.00s CPU      0.00s WALL (       7 calls)
     ccgdiagg     :      0.58s CPU      0.60s WALL (      15 calls)
     wfcrot       :      0.06s CPU      0.06s WALL (      15 calls)

     Called by sum_band:

     Called by *cgdiagg:
     h_psi        :      0.48s CPU      0.50s WALL (    1992 calls)

     Called by h_psi:
     h_psi:calbec :      0.03s CPU      0.03s WALL (    1992 calls)
     vloc_psi     :      0.43s CPU      0.45s WALL (    1992 calls)
     add_vuspsi   :      0.00s CPU      0.01s WALL (    1992 calls)
     hs_1psi      :      0.45s CPU      0.47s WALL (    1977 calls)
     s_1psi       :      0.03s CPU      0.03s WALL (    1977 calls)

     General routines
     calbec       :      0.04s CPU      0.05s WALL (    3969 calls)
     fft          :      0.00s CPU      0.00s WALL (       3 calls)
     fftw         :      0.36s CPU      0.37s WALL (    4404 calls)
     davcio       :      0.00s CPU      0.00s WALL (      14 calls)

     Parallel routines
     fft_scatt_xy :      0.06s CPU      0.06s WALL (    4407 calls)
     fft_scatt_yz :      0.12s CPU      0.12s WALL (    4407 calls)

     PWSCF        :      1.37s CPU      1.70s WALL


   This run was terminated on:  10:32:47   6Oct2021            

=------------------------------------------------------------------------------=
   JOB DONE.
=------------------------------------------------------------------------------=
