
     Program PWSCF v.6.7MaX starts on 13Oct2021 at 15:58:55 

     This program is part of the open-source Quantum ESPRESSO suite
     for quantum simulation of materials; please cite
         "P. Giannozzi et al., J. Phys.:Condens. Matter 21 395502 (2009);
         "P. Giannozzi et al., J. Phys.:Condens. Matter 29 465901 (2017);
          URL http://www.quantum-espresso.org", 
     in publications or presentations arising from this work. More details at
     http://www.quantum-espresso.org/quote

     Parallel version (MPI), running on    56 processors

     MPI processes distributed on     2 nodes
     K-points division:     npool     =       7
     R & G space division:  proc/nbgrp/npool/nimage =       8
     Waiting for input...
     Reading input from standard input

     Current dimensions of program PWSCF are:
     Max number of different atomic species (ntypx) = 10
     Max number of k-points (npk) =  40000
     Max angular momentum in pseudopotentials (lmaxx) =  3

     Atomic positions and unit cell read from directory:
     run_output/hBN_2D.save/
     Atomic positions from file used, from input discarded


     Subspace diagonalization in iterative solution of the eigenvalue problem:
     one sub-group per band group will be used
     scalapack distributed-memory algorithm (size of sub-group:  2*  2 procs)


     Parallelization info
     --------------------
     sticks:   dense  smooth     PW     G-vecs:    dense   smooth      PW
     Min          31      31     10                 2719     2719     510
     Max          32      32     11                 2731     2731     525
     Sum         253     253     85                21817    21817    4131



     bravais-lattice index     =            4
     lattice parameter (alat)  =       4.7160  a.u.
     unit-cell volume          =     635.8432 (a.u.)^3
     number of atoms/cell      =            2
     number of atomic types    =            2
     number of electrons       =         8.00
     number of Kohn-Sham states=           20
     kinetic-energy cutoff     =      40.0000  Ry
     charge density cutoff     =     160.0000  Ry
     Exchange-correlation=  SLA  PZ   NOGX NOGC
                           (   1   1   0   0   0   0   0)

     celldm(1)=   4.716000  celldm(2)=   0.000000  celldm(3)=   7.000000
     celldm(4)=   0.000000  celldm(5)=   0.000000  celldm(6)=   0.000000

     crystal axes: (cart. coord. in units of alat)
               a(1) = (   1.000000   0.000000   0.000000 )  
               a(2) = (  -0.500000   0.866025   0.000000 )  
               a(3) = (   0.000000   0.000000   7.000000 )  

     reciprocal axes: (cart. coord. in units 2 pi/alat)
               b(1) = (  1.000000  0.577350 -0.000000 )  
               b(2) = (  0.000000  1.154701  0.000000 )  
               b(3) = (  0.000000 -0.000000  0.142857 )  


     PseudoPot. # 1 for B  read from file:
     PPs/B.pz-vbc.UPF
     MD5 check sum: b59596b5d63edeea6a2b3a0beace49c5
     Pseudo is Norm-conserving, Zval =  3.0
     Generated by new atomic code, or converted to UPF format
     Using radial grid of  157 points,  1 beta functions with: 
                l(1) =   0

     PseudoPot. # 2 for N  read from file:
     PPs/N.pz-vbc.UPF
     MD5 check sum: f7a51f6f78412844d17f6e69b370b417
     Pseudo is Norm-conserving, Zval =  5.0
     Generated by new atomic code, or converted to UPF format
     Using radial grid of  161 points,  1 beta functions with: 
                l(1) =   0

     atomic species   valence    mass     pseudopotential
        B              3.00    10.00000     B ( 1.00)
        N              5.00    14.00000     N ( 1.00)

     12 Sym. Ops. (no inversion) found


                                    s                        frac. trans.

      isym =  1     identity                                     

 cryst.   s( 1) = (     1          0          0      )
                  (     0          1          0      )
                  (     0          0          1      )

 cart.    s( 1) = (  1.0000000  0.0000000  0.0000000 )
                  (  0.0000000  1.0000000  0.0000000 )
                  (  0.0000000  0.0000000  1.0000000 )


      isym =  2     180 deg rotation - cart. axis [0,1,0]        

 cryst.   s( 2) = (    -1          0          0      )
                  (     1          1          0      )
                  (     0          0         -1      )

 cart.    s( 2) = ( -1.0000000  0.0000000  0.0000000 )
                  (  0.0000000  1.0000000  0.0000000 )
                  (  0.0000000  0.0000000 -1.0000000 )


      isym =  3     120 deg rotation - cryst. axis [0,0,1]       

 cryst.   s( 3) = (     0          1          0      )
                  (    -1         -1          0      )
                  (     0          0          1      )

 cart.    s( 3) = ( -0.5000000 -0.8660254  0.0000000 )
                  (  0.8660254 -0.5000000  0.0000000 )
                  (  0.0000000  0.0000000  1.0000000 )


      isym =  4     120 deg rotation - cryst. axis [0,0,-1]      

 cryst.   s( 4) = (    -1         -1          0      )
                  (     1          0          0      )
                  (     0          0          1      )

 cart.    s( 4) = ( -0.5000000  0.8660254  0.0000000 )
                  ( -0.8660254 -0.5000000  0.0000000 )
                  (  0.0000000  0.0000000  1.0000000 )


      isym =  5     180 deg rotation - cryst. axis [1,-1,0]      

 cryst.   s( 5) = (     0         -1          0      )
                  (    -1          0          0      )
                  (     0          0         -1      )

 cart.    s( 5) = (  0.5000000 -0.8660254  0.0000000 )
                  ( -0.8660254 -0.5000000  0.0000000 )
                  (  0.0000000  0.0000000 -1.0000000 )


      isym =  6     180 deg rotation - cryst. axis [2,1,0]       

 cryst.   s( 6) = (     1          1          0      )
                  (     0         -1          0      )
                  (     0          0         -1      )

 cart.    s( 6) = (  0.5000000  0.8660254  0.0000000 )
                  (  0.8660254 -0.5000000  0.0000000 )
                  (  0.0000000  0.0000000 -1.0000000 )


      isym =  7     inv. 180 deg rotation - cart. axis [0,0,1]   

 cryst.   s( 7) = (     1          0          0      )
                  (     0          1          0      )
                  (     0          0         -1      )

 cart.    s( 7) = (  1.0000000  0.0000000  0.0000000 )
                  (  0.0000000  1.0000000  0.0000000 )
                  (  0.0000000  0.0000000 -1.0000000 )


      isym =  8     inv. 180 deg rotation - cart. axis [1,0,0]   

 cryst.   s( 8) = (    -1          0          0      )
                  (     1          1          0      )
                  (     0          0          1      )

 cart.    s( 8) = ( -1.0000000  0.0000000  0.0000000 )
                  (  0.0000000  1.0000000  0.0000000 )
                  (  0.0000000  0.0000000  1.0000000 )


      isym =  9     inv.  60 deg rotation - cryst. axis [0,0,1]  

 cryst.   s( 9) = (    -1         -1          0      )
                  (     1          0          0      )
                  (     0          0         -1      )

 cart.    s( 9) = ( -0.5000000  0.8660254  0.0000000 )
                  ( -0.8660254 -0.5000000  0.0000000 )
                  (  0.0000000  0.0000000 -1.0000000 )


      isym = 10     inv.  60 deg rotation - cryst. axis [0,0,-1] 

 cryst.   s(10) = (     0          1          0      )
                  (    -1         -1          0      )
                  (     0          0         -1      )

 cart.    s(10) = ( -0.5000000 -0.8660254  0.0000000 )
                  (  0.8660254 -0.5000000  0.0000000 )
                  (  0.0000000  0.0000000 -1.0000000 )


      isym = 11     inv. 180 deg rotation - cryst. axis [0,1,0]  

 cryst.   s(11) = (     1          1          0      )
                  (     0         -1          0      )
                  (     0          0          1      )

 cart.    s(11) = (  0.5000000  0.8660254  0.0000000 )
                  (  0.8660254 -0.5000000  0.0000000 )
                  (  0.0000000  0.0000000  1.0000000 )


      isym = 12     inv. 180 deg rotation - cryst. axis [1,1,0]  

 cryst.   s(12) = (     0         -1          0      )
                  (    -1          0          0      )
                  (     0          0          1      )

 cart.    s(12) = (  0.5000000 -0.8660254  0.0000000 )
                  ( -0.8660254 -0.5000000  0.0000000 )
                  (  0.0000000  0.0000000  1.0000000 )


     point group D_3h (-62m)
     there are  6 classes
     the character table:

       E     2C3   3C2   s_h   2S3   3s_v 
A'_1   1.00  1.00  1.00  1.00  1.00  1.00
A'_2   1.00  1.00 -1.00  1.00  1.00 -1.00
E'     2.00 -1.00  0.00  2.00 -1.00  0.00
A''1   1.00  1.00  1.00 -1.00 -1.00 -1.00
A''2   1.00  1.00 -1.00 -1.00 -1.00  1.00
E''    2.00 -1.00  0.00 -2.00  1.00  0.00

     the symmetry operations in each class and the name of the first element:

     E        1
          identity                                               
     2C3      3    4
          120 deg rotation - cryst. axis [0,0,1]                 
     3C2      2    6    5
          180 deg rotation - cart. axis [0,1,0]                  
     s_h      7
          inv. 180 deg rotation - cart. axis [0,0,1]             
     2S3      9   10
          inv.  60 deg rotation - cryst. axis [0,0,1]            
     3s_v     8   11   12
          inv. 180 deg rotation - cart. axis [1,0,0]             

   Cartesian axes

     site n.     atom                  positions (alat units)
         1           B   tau(   1) = (   0.5000001   0.2886751   0.0000000  )
         2           N   tau(   2) = (  -0.5000001  -0.2886751   0.0000000  )

   Crystallographic axes

     site n.     atom                  positions (cryst. coord.)
         1           B   tau(   1) = (  0.6666667  0.3333333  0.0000000  )
         2           N   tau(   2) = ( -0.6666667 -0.3333333  0.0000000  )

     number of k points=   127
                       cart. coord. in units 2pi/alat
        k(    1) = (   0.0000000   0.0000000   0.0000000), wk =   0.0015432
        k(    2) = (   0.0000000   0.0320750   0.0000000), wk =   0.0092593
        k(    3) = (   0.0000000   0.0641500   0.0000000), wk =   0.0092593
        k(    4) = (   0.0000000   0.0962250   0.0000000), wk =   0.0092593
        k(    5) = (   0.0000000   0.1283001   0.0000000), wk =   0.0092593
        k(    6) = (   0.0000000   0.1603751   0.0000000), wk =   0.0092593
        k(    7) = (   0.0000000   0.1924501   0.0000000), wk =   0.0092593
        k(    8) = (   0.0000000   0.2245251   0.0000000), wk =   0.0092593
        k(    9) = (   0.0000000   0.2566001   0.0000000), wk =   0.0092593
        k(   10) = (   0.0000000   0.2886751   0.0000000), wk =   0.0092593
        k(   11) = (   0.0000000   0.3207501   0.0000000), wk =   0.0092593
        k(   12) = (   0.0000000   0.3528252   0.0000000), wk =   0.0092593
        k(   13) = (   0.0000000   0.3849002   0.0000000), wk =   0.0092593
        k(   14) = (   0.0000000   0.4169752   0.0000000), wk =   0.0092593
        k(   15) = (   0.0000000   0.4490502   0.0000000), wk =   0.0092593
        k(   16) = (   0.0000000   0.4811252   0.0000000), wk =   0.0092593
        k(   17) = (   0.0000000   0.5132002   0.0000000), wk =   0.0092593
        k(   18) = (   0.0000000   0.5452753   0.0000000), wk =   0.0092593
        k(   19) = (   0.0000000  -0.5773503   0.0000000), wk =   0.0046296
        k(   20) = (   0.0277778   0.0481125   0.0000000), wk =   0.0092593
        k(   21) = (   0.0277778   0.0801875   0.0000000), wk =   0.0185185
        k(   22) = (   0.0277778   0.1122626   0.0000000), wk =   0.0185185
        k(   23) = (   0.0277778   0.1443376   0.0000000), wk =   0.0185185
        k(   24) = (   0.0277778   0.1764126   0.0000000), wk =   0.0185185
        k(   25) = (   0.0277778   0.2084876   0.0000000), wk =   0.0185185
        k(   26) = (   0.0277778   0.2405626   0.0000000), wk =   0.0185185
        k(   27) = (   0.0277778   0.2726376   0.0000000), wk =   0.0185185
        k(   28) = (   0.0277778   0.3047126   0.0000000), wk =   0.0185185
        k(   29) = (   0.0277778   0.3367877   0.0000000), wk =   0.0185185
        k(   30) = (   0.0277778   0.3688627   0.0000000), wk =   0.0185185
        k(   31) = (   0.0277778   0.4009377   0.0000000), wk =   0.0185185
        k(   32) = (   0.0277778   0.4330127   0.0000000), wk =   0.0185185
        k(   33) = (   0.0277778   0.4650877   0.0000000), wk =   0.0185185
        k(   34) = (   0.0277778   0.4971627   0.0000000), wk =   0.0185185
        k(   35) = (   0.0277778   0.5292377   0.0000000), wk =   0.0185185
        k(   36) = (   0.0277778   0.5613128   0.0000000), wk =   0.0185185
        k(   37) = (   0.0555556   0.0962250   0.0000000), wk =   0.0092593
        k(   38) = (   0.0555556   0.1283001   0.0000000), wk =   0.0185185
        k(   39) = (   0.0555556   0.1603751   0.0000000), wk =   0.0185185
        k(   40) = (   0.0555556   0.1924501   0.0000000), wk =   0.0185185
        k(   41) = (   0.0555556   0.2245251   0.0000000), wk =   0.0185185
        k(   42) = (   0.0555556   0.2566001   0.0000000), wk =   0.0185185
        k(   43) = (   0.0555556   0.2886751   0.0000000), wk =   0.0185185
        k(   44) = (   0.0555556   0.3207501   0.0000000), wk =   0.0185185
        k(   45) = (   0.0555556   0.3528252   0.0000000), wk =   0.0185185
        k(   46) = (   0.0555556   0.3849002   0.0000000), wk =   0.0185185
        k(   47) = (   0.0555556   0.4169752   0.0000000), wk =   0.0185185
        k(   48) = (   0.0555556   0.4490502   0.0000000), wk =   0.0185185
        k(   49) = (   0.0555556   0.4811252   0.0000000), wk =   0.0185185
        k(   50) = (   0.0555556   0.5132002   0.0000000), wk =   0.0185185
        k(   51) = (   0.0555556   0.5452753   0.0000000), wk =   0.0185185
        k(   52) = (   0.0555556   0.5773503   0.0000000), wk =   0.0092593
        k(   53) = (   0.0833333   0.1443376   0.0000000), wk =   0.0092593
        k(   54) = (   0.0833333   0.1764126   0.0000000), wk =   0.0185185
        k(   55) = (   0.0833333   0.2084876   0.0000000), wk =   0.0185185
        k(   56) = (   0.0833333   0.2405626   0.0000000), wk =   0.0185185
        k(   57) = (   0.0833333   0.2726376   0.0000000), wk =   0.0185185
        k(   58) = (   0.0833333   0.3047126   0.0000000), wk =   0.0185185
        k(   59) = (   0.0833333   0.3367877   0.0000000), wk =   0.0185185
        k(   60) = (   0.0833333   0.3688627   0.0000000), wk =   0.0185185
        k(   61) = (   0.0833333   0.4009377   0.0000000), wk =   0.0185185
        k(   62) = (   0.0833333   0.4330127   0.0000000), wk =   0.0185185
        k(   63) = (   0.0833333   0.4650877   0.0000000), wk =   0.0185185
        k(   64) = (   0.0833333   0.4971627   0.0000000), wk =   0.0185185
        k(   65) = (   0.0833333   0.5292377   0.0000000), wk =   0.0185185
        k(   66) = (   0.0833333   0.5613128   0.0000000), wk =   0.0185185
        k(   67) = (   0.1111111   0.1924501   0.0000000), wk =   0.0092593
        k(   68) = (   0.1111111   0.2245251   0.0000000), wk =   0.0185185
        k(   69) = (   0.1111111   0.2566001   0.0000000), wk =   0.0185185
        k(   70) = (   0.1111111   0.2886751   0.0000000), wk =   0.0185185
        k(   71) = (   0.1111111   0.3207501   0.0000000), wk =   0.0185185
        k(   72) = (   0.1111111   0.3528252   0.0000000), wk =   0.0185185
        k(   73) = (   0.1111111   0.3849002   0.0000000), wk =   0.0185185
        k(   74) = (   0.1111111   0.4169752   0.0000000), wk =   0.0185185
        k(   75) = (   0.1111111   0.4490502   0.0000000), wk =   0.0185185
        k(   76) = (   0.1111111   0.4811252   0.0000000), wk =   0.0185185
        k(   77) = (   0.1111111   0.5132002   0.0000000), wk =   0.0185185
        k(   78) = (   0.1111111   0.5452753   0.0000000), wk =   0.0185185
        k(   79) = (   0.1111111   0.5773503   0.0000000), wk =   0.0092593
        k(   80) = (   0.1388889   0.2405626   0.0000000), wk =   0.0092593
        k(   81) = (   0.1388889   0.2726376   0.0000000), wk =   0.0185185
        k(   82) = (   0.1388889   0.3047126   0.0000000), wk =   0.0185185
        k(   83) = (   0.1388889   0.3367877   0.0000000), wk =   0.0185185
        k(   84) = (   0.1388889   0.3688627   0.0000000), wk =   0.0185185
        k(   85) = (   0.1388889   0.4009377   0.0000000), wk =   0.0185185
        k(   86) = (   0.1388889   0.4330127   0.0000000), wk =   0.0185185
        k(   87) = (   0.1388889   0.4650877   0.0000000), wk =   0.0185185
        k(   88) = (   0.1388889   0.4971627   0.0000000), wk =   0.0185185
        k(   89) = (   0.1388889   0.5292377   0.0000000), wk =   0.0185185
        k(   90) = (   0.1388889   0.5613128   0.0000000), wk =   0.0185185
        k(   91) = (   0.1666667   0.2886751   0.0000000), wk =   0.0092593
        k(   92) = (   0.1666667   0.3207501   0.0000000), wk =   0.0185185
        k(   93) = (   0.1666667   0.3528252   0.0000000), wk =   0.0185185
        k(   94) = (   0.1666667   0.3849002   0.0000000), wk =   0.0185185
        k(   95) = (   0.1666667   0.4169752   0.0000000), wk =   0.0185185
        k(   96) = (   0.1666667   0.4490502   0.0000000), wk =   0.0185185
        k(   97) = (   0.1666667   0.4811252   0.0000000), wk =   0.0185185
        k(   98) = (   0.1666667   0.5132002   0.0000000), wk =   0.0185185
        k(   99) = (   0.1666667   0.5452753   0.0000000), wk =   0.0185185
        k(  100) = (   0.1666667   0.5773503   0.0000000), wk =   0.0092593
        k(  101) = (   0.1944444   0.3367877   0.0000000), wk =   0.0092593
        k(  102) = (   0.1944444   0.3688627   0.0000000), wk =   0.0185185
        k(  103) = (   0.1944444   0.4009377   0.0000000), wk =   0.0185185
        k(  104) = (   0.1944444   0.4330127   0.0000000), wk =   0.0185185
        k(  105) = (   0.1944444   0.4650877   0.0000000), wk =   0.0185185
        k(  106) = (   0.1944444   0.4971627   0.0000000), wk =   0.0185185
        k(  107) = (   0.1944444   0.5292377   0.0000000), wk =   0.0185185
        k(  108) = (   0.1944444   0.5613128   0.0000000), wk =   0.0185185
        k(  109) = (   0.2222222   0.3849002   0.0000000), wk =   0.0092593
        k(  110) = (   0.2222222   0.4169752   0.0000000), wk =   0.0185185
        k(  111) = (   0.2222222   0.4490502   0.0000000), wk =   0.0185185
        k(  112) = (   0.2222222   0.4811252   0.0000000), wk =   0.0185185
        k(  113) = (   0.2222222   0.5132002   0.0000000), wk =   0.0185185
        k(  114) = (   0.2222222   0.5452753   0.0000000), wk =   0.0185185
        k(  115) = (   0.2222222   0.5773503   0.0000000), wk =   0.0092593
        k(  116) = (   0.2500000   0.4330127   0.0000000), wk =   0.0092593
        k(  117) = (   0.2500000   0.4650877   0.0000000), wk =   0.0185185
        k(  118) = (   0.2500000   0.4971627   0.0000000), wk =   0.0185185
        k(  119) = (   0.2500000   0.5292377   0.0000000), wk =   0.0185185
        k(  120) = (   0.2500000   0.5613128   0.0000000), wk =   0.0185185
        k(  121) = (   0.2777778   0.4811252   0.0000000), wk =   0.0092593
        k(  122) = (   0.2777778   0.5132002   0.0000000), wk =   0.0185185
        k(  123) = (   0.2777778   0.5452753   0.0000000), wk =   0.0185185
        k(  124) = (   0.2777778   0.5773503   0.0000000), wk =   0.0092593
        k(  125) = (   0.3055556   0.5292377   0.0000000), wk =   0.0092593
        k(  126) = (   0.3055556   0.5613128   0.0000000), wk =   0.0185185
        k(  127) = (   0.3333333   0.5773503   0.0000000), wk =   0.0030864

                       cryst. coord.
        k(    1) = (   0.0000000   0.0000000   0.0000000), wk =   0.0015432
        k(    2) = (   0.0000000   0.0277778   0.0000000), wk =   0.0092593
        k(    3) = (   0.0000000   0.0555556   0.0000000), wk =   0.0092593
        k(    4) = (   0.0000000   0.0833333   0.0000000), wk =   0.0092593
        k(    5) = (   0.0000000   0.1111111   0.0000000), wk =   0.0092593
        k(    6) = (   0.0000000   0.1388889   0.0000000), wk =   0.0092593
        k(    7) = (   0.0000000   0.1666667   0.0000000), wk =   0.0092593
        k(    8) = (   0.0000000   0.1944444   0.0000000), wk =   0.0092593
        k(    9) = (   0.0000000   0.2222222   0.0000000), wk =   0.0092593
        k(   10) = (   0.0000000   0.2500000   0.0000000), wk =   0.0092593
        k(   11) = (   0.0000000   0.2777778   0.0000000), wk =   0.0092593
        k(   12) = (   0.0000000   0.3055556   0.0000000), wk =   0.0092593
        k(   13) = (   0.0000000   0.3333333   0.0000000), wk =   0.0092593
        k(   14) = (   0.0000000   0.3611111   0.0000000), wk =   0.0092593
        k(   15) = (   0.0000000   0.3888889   0.0000000), wk =   0.0092593
        k(   16) = (   0.0000000   0.4166667   0.0000000), wk =   0.0092593
        k(   17) = (   0.0000000   0.4444444   0.0000000), wk =   0.0092593
        k(   18) = (   0.0000000   0.4722222   0.0000000), wk =   0.0092593
        k(   19) = (   0.0000000  -0.5000000   0.0000000), wk =   0.0046296
        k(   20) = (   0.0277778   0.0277778   0.0000000), wk =   0.0092593
        k(   21) = (   0.0277778   0.0555556   0.0000000), wk =   0.0185185
        k(   22) = (   0.0277778   0.0833333   0.0000000), wk =   0.0185185
        k(   23) = (   0.0277778   0.1111111   0.0000000), wk =   0.0185185
        k(   24) = (   0.0277778   0.1388889   0.0000000), wk =   0.0185185
        k(   25) = (   0.0277778   0.1666667   0.0000000), wk =   0.0185185
        k(   26) = (   0.0277778   0.1944444   0.0000000), wk =   0.0185185
        k(   27) = (   0.0277778   0.2222222   0.0000000), wk =   0.0185185
        k(   28) = (   0.0277778   0.2500000   0.0000000), wk =   0.0185185
        k(   29) = (   0.0277778   0.2777778   0.0000000), wk =   0.0185185
        k(   30) = (   0.0277778   0.3055556   0.0000000), wk =   0.0185185
        k(   31) = (   0.0277778   0.3333333   0.0000000), wk =   0.0185185
        k(   32) = (   0.0277778   0.3611111   0.0000000), wk =   0.0185185
        k(   33) = (   0.0277778   0.3888889   0.0000000), wk =   0.0185185
        k(   34) = (   0.0277778   0.4166667   0.0000000), wk =   0.0185185
        k(   35) = (   0.0277778   0.4444444   0.0000000), wk =   0.0185185
        k(   36) = (   0.0277778   0.4722222   0.0000000), wk =   0.0185185
        k(   37) = (   0.0555556   0.0555556   0.0000000), wk =   0.0092593
        k(   38) = (   0.0555556   0.0833333   0.0000000), wk =   0.0185185
        k(   39) = (   0.0555556   0.1111111   0.0000000), wk =   0.0185185
        k(   40) = (   0.0555556   0.1388889   0.0000000), wk =   0.0185185
        k(   41) = (   0.0555556   0.1666667   0.0000000), wk =   0.0185185
        k(   42) = (   0.0555556   0.1944444   0.0000000), wk =   0.0185185
        k(   43) = (   0.0555556   0.2222222   0.0000000), wk =   0.0185185
        k(   44) = (   0.0555556   0.2500000   0.0000000), wk =   0.0185185
        k(   45) = (   0.0555556   0.2777778   0.0000000), wk =   0.0185185
        k(   46) = (   0.0555556   0.3055556   0.0000000), wk =   0.0185185
        k(   47) = (   0.0555556   0.3333333   0.0000000), wk =   0.0185185
        k(   48) = (   0.0555556   0.3611111   0.0000000), wk =   0.0185185
        k(   49) = (   0.0555556   0.3888889   0.0000000), wk =   0.0185185
        k(   50) = (   0.0555556   0.4166667   0.0000000), wk =   0.0185185
        k(   51) = (   0.0555556   0.4444444   0.0000000), wk =   0.0185185
        k(   52) = (   0.0555556   0.4722222   0.0000000), wk =   0.0092593
        k(   53) = (   0.0833333   0.0833333   0.0000000), wk =   0.0092593
        k(   54) = (   0.0833333   0.1111111   0.0000000), wk =   0.0185185
        k(   55) = (   0.0833333   0.1388889   0.0000000), wk =   0.0185185
        k(   56) = (   0.0833333   0.1666667   0.0000000), wk =   0.0185185
        k(   57) = (   0.0833333   0.1944444   0.0000000), wk =   0.0185185
        k(   58) = (   0.0833333   0.2222222   0.0000000), wk =   0.0185185
        k(   59) = (   0.0833333   0.2500000   0.0000000), wk =   0.0185185
        k(   60) = (   0.0833333   0.2777778   0.0000000), wk =   0.0185185
        k(   61) = (   0.0833333   0.3055556   0.0000000), wk =   0.0185185
        k(   62) = (   0.0833333   0.3333333   0.0000000), wk =   0.0185185
        k(   63) = (   0.0833333   0.3611111   0.0000000), wk =   0.0185185
        k(   64) = (   0.0833333   0.3888889   0.0000000), wk =   0.0185185
        k(   65) = (   0.0833333   0.4166667   0.0000000), wk =   0.0185185
        k(   66) = (   0.0833333   0.4444444   0.0000000), wk =   0.0185185
        k(   67) = (   0.1111111   0.1111111   0.0000000), wk =   0.0092593
        k(   68) = (   0.1111111   0.1388889   0.0000000), wk =   0.0185185
        k(   69) = (   0.1111111   0.1666667   0.0000000), wk =   0.0185185
        k(   70) = (   0.1111111   0.1944444   0.0000000), wk =   0.0185185
        k(   71) = (   0.1111111   0.2222222   0.0000000), wk =   0.0185185
        k(   72) = (   0.1111111   0.2500000   0.0000000), wk =   0.0185185
        k(   73) = (   0.1111111   0.2777778   0.0000000), wk =   0.0185185
        k(   74) = (   0.1111111   0.3055556   0.0000000), wk =   0.0185185
        k(   75) = (   0.1111111   0.3333333   0.0000000), wk =   0.0185185
        k(   76) = (   0.1111111   0.3611111   0.0000000), wk =   0.0185185
        k(   77) = (   0.1111111   0.3888889   0.0000000), wk =   0.0185185
        k(   78) = (   0.1111111   0.4166667   0.0000000), wk =   0.0185185
        k(   79) = (   0.1111111   0.4444444   0.0000000), wk =   0.0092593
        k(   80) = (   0.1388889   0.1388889   0.0000000), wk =   0.0092593
        k(   81) = (   0.1388889   0.1666667   0.0000000), wk =   0.0185185
        k(   82) = (   0.1388889   0.1944444   0.0000000), wk =   0.0185185
        k(   83) = (   0.1388889   0.2222222   0.0000000), wk =   0.0185185
        k(   84) = (   0.1388889   0.2500000   0.0000000), wk =   0.0185185
        k(   85) = (   0.1388889   0.2777778   0.0000000), wk =   0.0185185
        k(   86) = (   0.1388889   0.3055556   0.0000000), wk =   0.0185185
        k(   87) = (   0.1388889   0.3333333   0.0000000), wk =   0.0185185
        k(   88) = (   0.1388889   0.3611111   0.0000000), wk =   0.0185185
        k(   89) = (   0.1388889   0.3888889   0.0000000), wk =   0.0185185
        k(   90) = (   0.1388889   0.4166667   0.0000000), wk =   0.0185185
        k(   91) = (   0.1666667   0.1666667   0.0000000), wk =   0.0092593
        k(   92) = (   0.1666667   0.1944444   0.0000000), wk =   0.0185185
        k(   93) = (   0.1666667   0.2222222   0.0000000), wk =   0.0185185
        k(   94) = (   0.1666667   0.2500000   0.0000000), wk =   0.0185185
        k(   95) = (   0.1666667   0.2777778   0.0000000), wk =   0.0185185
        k(   96) = (   0.1666667   0.3055556   0.0000000), wk =   0.0185185
        k(   97) = (   0.1666667   0.3333333   0.0000000), wk =   0.0185185
        k(   98) = (   0.1666667   0.3611111   0.0000000), wk =   0.0185185
        k(   99) = (   0.1666667   0.3888889   0.0000000), wk =   0.0185185
        k(  100) = (   0.1666667   0.4166667   0.0000000), wk =   0.0092593
        k(  101) = (   0.1944444   0.1944444   0.0000000), wk =   0.0092593
        k(  102) = (   0.1944444   0.2222222   0.0000000), wk =   0.0185185
        k(  103) = (   0.1944444   0.2500000   0.0000000), wk =   0.0185185
        k(  104) = (   0.1944444   0.2777778   0.0000000), wk =   0.0185185
        k(  105) = (   0.1944444   0.3055556   0.0000000), wk =   0.0185185
        k(  106) = (   0.1944444   0.3333333   0.0000000), wk =   0.0185185
        k(  107) = (   0.1944444   0.3611111   0.0000000), wk =   0.0185185
        k(  108) = (   0.1944444   0.3888889   0.0000000), wk =   0.0185185
        k(  109) = (   0.2222222   0.2222222   0.0000000), wk =   0.0092593
        k(  110) = (   0.2222222   0.2500000   0.0000000), wk =   0.0185185
        k(  111) = (   0.2222222   0.2777778   0.0000000), wk =   0.0185185
        k(  112) = (   0.2222222   0.3055556   0.0000000), wk =   0.0185185
        k(  113) = (   0.2222222   0.3333333   0.0000000), wk =   0.0185185
        k(  114) = (   0.2222222   0.3611111   0.0000000), wk =   0.0185185
        k(  115) = (   0.2222222   0.3888889   0.0000000), wk =   0.0092593
        k(  116) = (   0.2500000   0.2500000   0.0000000), wk =   0.0092593
        k(  117) = (   0.2500000   0.2777778   0.0000000), wk =   0.0185185
        k(  118) = (   0.2500000   0.3055556   0.0000000), wk =   0.0185185
        k(  119) = (   0.2500000   0.3333333   0.0000000), wk =   0.0185185
        k(  120) = (   0.2500000   0.3611111   0.0000000), wk =   0.0185185
        k(  121) = (   0.2777778   0.2777778   0.0000000), wk =   0.0092593
        k(  122) = (   0.2777778   0.3055556   0.0000000), wk =   0.0185185
        k(  123) = (   0.2777778   0.3333333   0.0000000), wk =   0.0185185
        k(  124) = (   0.2777778   0.3611111   0.0000000), wk =   0.0092593
        k(  125) = (   0.3055556   0.3055556   0.0000000), wk =   0.0092593
        k(  126) = (   0.3055556   0.3333333   0.0000000), wk =   0.0185185
        k(  127) = (   0.3333333   0.3333333   0.0000000), wk =   0.0030864

     Dense  grid:    21817 G-vectors     FFT dimensions: (  20,  20, 135)

     Dynamical RAM for                 wfc:       0.10 MB

     Dynamical RAM for     wfc (w. buffer):       0.10 MB

     Dynamical RAM for           str. fact:       0.08 MB

     Dynamical RAM for           local pot:       0.00 MB

     Dynamical RAM for          nlocal pot:       0.01 MB

     Dynamical RAM for                qrad:       0.02 MB

     Dynamical RAM for          rho,v,vnew:       0.28 MB

     Dynamical RAM for           G-vectors:       0.18 MB

     Dynamical RAM for          h,s,v(r/c):       0.07 MB

     Dynamical RAM for          <psi|beta>:       0.00 MB

     Dynamical RAM for                 psi:       0.41 MB

     Dynamical RAM for                hpsi:       0.41 MB

     Dynamical RAM for      wfcinit/wfcrot:       0.22 MB

     Estimated static dynamical RAM per process >       1.06 MB

     Estimated max dynamical RAM per process >       1.96 MB

     Estimated total dynamical RAM >     109.76 MB

     The potential is recalculated from file :
     run_output/hBN_2D.save/charge-density

     Starting wfcs are    8 randomized atomic wfcs +   12 random wfcs

     Band Structure Calculation
     Davidson diagonalization with overlap

     Computing kpt #:     1  of    19 on this pool
     total cpu time spent up to now is        1.3 secs

     Computing kpt #:     2  of    19 on this pool
     total cpu time spent up to now is        1.4 secs

     Computing kpt #:     3  of    19 on this pool
     total cpu time spent up to now is        1.5 secs

     Computing kpt #:     4  of    19 on this pool
     total cpu time spent up to now is        1.7 secs

     Computing kpt #:     5  of    19 on this pool
     total cpu time spent up to now is        1.8 secs

     Computing kpt #:     6  of    19 on this pool
     total cpu time spent up to now is        1.9 secs

     Computing kpt #:     7  of    19 on this pool
     total cpu time spent up to now is        2.1 secs

     Computing kpt #:     8  of    19 on this pool
     total cpu time spent up to now is        2.2 secs

     Computing kpt #:     9  of    19 on this pool
     total cpu time spent up to now is        2.4 secs

     Computing kpt #:    10  of    19 on this pool
     total cpu time spent up to now is        2.5 secs

     Computing kpt #:    11  of    19 on this pool
     total cpu time spent up to now is        2.6 secs

     Computing kpt #:    12  of    19 on this pool
     total cpu time spent up to now is        2.8 secs

     Computing kpt #:    13  of    19 on this pool
     total cpu time spent up to now is        2.9 secs

     Computing kpt #:    14  of    19 on this pool
     total cpu time spent up to now is        3.1 secs

     Computing kpt #:    15  of    19 on this pool
     total cpu time spent up to now is        3.2 secs

     Computing kpt #:    16  of    19 on this pool
     total cpu time spent up to now is        3.3 secs

     Computing kpt #:    17  of    19 on this pool
     total cpu time spent up to now is        3.5 secs

     Computing kpt #:    18  of    19 on this pool
     total cpu time spent up to now is        3.6 secs

     Computing kpt #:    19  of    19 on this pool
     total cpu time spent up to now is        3.7 secs

     ethr =  1.00E-06,  avg # of iterations = 14.1

     total cpu time spent up to now is        3.7 secs

     End of band structure calculation

          k = 0.0000 0.0000 0.0000 (  2731 PWs)   bands (ev):

   -22.1162  -9.4685  -5.3071  -5.3071   0.6556   1.8007   2.0624   3.3654
     3.8276   6.0487   6.5993   7.4779   7.4779   8.9384   9.3230  11.1015
    12.0110  15.4826  16.7702  21.0437

     occupation numbers 
     1.0000   1.0000   1.0000   1.0000   0.0000   0.0000   0.0000   0.0000
     0.0000   0.0000   0.0000   0.0000   0.0000   0.0000   0.0000   0.0000
     0.0000   0.0000   0.0000   0.0000

          k = 0.0000 0.0321 0.0000 (  2745 PWs)   bands (ev):

   -22.1022  -9.4484  -5.3898  -5.3562   0.6823   1.8244   2.0874   3.3886
     3.8532   6.0679   6.6236   7.4619   7.5442   8.9228   9.3702  11.0957
    12.0440  15.4969  16.7978  21.0920

     occupation numbers 
     1.0000   1.0000   1.0000   1.0000   0.0000   0.0000   0.0000   0.0000
     0.0000   0.0000   0.0000   0.0000   0.0000   0.0000   0.0000   0.0000
     0.0000   0.0000   0.0000   0.0000

          k = 0.0000 0.0642 0.0000 (  2739 PWs)   bands (ev):

   -22.0571  -9.3838  -5.5896  -5.4424   0.7621   1.8959   2.1626   3.4587
     3.9302   6.1245   6.6929   7.4358   7.7554   8.8688   9.5096  11.0831
    12.1422  15.5410  16.8797  21.1499

     occupation numbers 
     1.0000   1.0000   1.0000   1.0000   0.0000   0.0000   0.0000   0.0000
     0.0000   0.0000   0.0000   0.0000   0.0000   0.0000   0.0000   0.0000
     0.0000   0.0000   0.0000   0.0000

          k = 0.0000 0.0962 0.0000 (  2727 PWs)   bands (ev):

   -21.9822  -9.2787  -5.8941  -5.5887   0.8926   2.0145   2.2875   3.5747
     4.0569   6.2148   6.7898   7.4239   8.0940   8.7699   9.7293  11.0847
    12.3027  15.6156  17.0135  21.1182

     occupation numbers 
     1.0000   1.0000   1.0000   1.0000   0.0000   0.0000   0.0000   0.0000
     0.0000   0.0000   0.0000   0.0000   0.0000   0.0000   0.0000   0.0000
     0.0000   0.0000   0.0000   0.0000

          k = 0.0000 0.1283 0.0000 (  2726 PWs)   bands (ev):

   -21.8792  -9.1385  -6.3047  -5.7826   1.0712   2.1787   2.4619   3.7343
     4.2317   6.3252   6.8755   7.4591   8.5528   8.6040  10.0163  11.1207
    12.5209  15.7208  17.1958  20.9719

     occupation numbers 
     1.0000   1.0000   1.0000   1.0000   0.0000   0.0000   0.0000   0.0000
     0.0000   0.0000   0.0000   0.0000   0.0000   0.0000   0.0000   0.0000
     0.0000   0.0000   0.0000   0.0000

          k = 0.0000 0.1604 0.0000 (  2724 PWs)   bands (ev):

   -21.7470  -8.9580  -6.8009  -6.0025   1.2963   2.3881   2.6855   3.9363
     4.4528   6.4367   6.9023   7.5913   8.3944   9.1205  10.3589  11.2126
    12.7912  15.8543  17.4222  20.5908

     occupation numbers 
     1.0000   1.0000   1.0000   1.0000   0.0000   0.0000   0.0000   0.0000
     0.0000   0.0000   0.0000   0.0000   0.0000   0.0000   0.0000   0.0000
     0.0000   0.0000   0.0000   0.0000

          k = 0.0000 0.1925 0.0000 (  2724 PWs)   bands (ev):

   -21.5877  -8.7363  -7.3625  -6.2477   1.5656   2.6407   2.9580   4.1762
     4.7175   6.5022   6.8765   7.8263   8.1984   9.7838  10.7424  11.3685
    13.1046  16.0078  17.6878  19.9923

     occupation numbers 
     1.0000   1.0000   1.0000   1.0000   0.0000   0.0000   0.0000   0.0000
     0.0000   0.0000   0.0000   0.0000   0.0000   0.0000   0.0000   0.0000
     0.0000   0.0000   0.0000   0.0000

          k = 0.0000 0.2245 0.0000 (  2706 PWs)   bands (ev):

   -21.4009  -8.4736  -7.9469  -6.4935   1.8791   2.9325   3.2793   4.4441
     5.0226   6.4538   6.8319   8.1207   8.1375  10.5223  11.1656  11.5864
    13.4549  16.1606  17.9848  19.3393

     occupation numbers 
     1.0000   1.0000   1.0000   1.0000   0.0000   0.0000   0.0000   0.0000
     0.0000   0.0000   0.0000   0.0000   0.0000   0.0000   0.0000   0.0000
     0.0000   0.0000   0.0000   0.0000

          k = 0.0000 0.2566 0.0000 (  2696 PWs)   bands (ev):

   -21.1909  -8.5641  -8.1798  -6.7347   2.2340   3.2496   3.6488   4.7063
     5.3595   6.2677   6.7953   8.2245   8.5047  11.3306  11.6092  11.8594
    13.8230  16.2679  18.2925  18.7598

     occupation numbers 
     1.0000   1.0000   1.0000   1.0000   0.0000   0.0000   0.0000   0.0000
     0.0000   0.0000   0.0000   0.0000   0.0000   0.0000   0.0000   0.0000
     0.0000   0.0000   0.0000   0.0000

          k = 0.0000 0.2887 0.0000 (  2694 PWs)   bands (ev):

   -20.9586  -9.1901  -7.8538  -6.9838   2.6298   3.5544   4.0663   4.8773
     5.7092   6.1086   6.7987   8.4849   8.9215  12.0659  12.1771  12.1783
    14.1880  16.2478  18.3449  18.4906

     occupation numbers 
     1.0000   1.0000   1.0000   1.0000   0.0000   0.0000   0.0000   0.0000
     0.0000   0.0000   0.0000   0.0000   0.0000   0.0000   0.0000   0.0000
     0.0000   0.0000   0.0000   0.0000

          k = 0.0000 0.3208 0.0000 (  2698 PWs)   bands (ev):

   -20.7081  -9.8240  -7.4961  -7.2219   3.0618   3.7195   4.5302   4.9210
     6.0193   6.2215   6.9009   8.8501   9.3836  12.5064  12.5303  13.0595
    14.5070  16.0285  17.9786  18.0979

     occupation numbers 
     1.0000   1.0000   1.0000   1.0000   0.0000   0.0000   0.0000   0.0000
     0.0000   0.0000   0.0000   0.0000   0.0000   0.0000   0.0000   0.0000
     0.0000   0.0000   0.0000   0.0000

          k = 0.0000 0.3528 0.0000 (  2706 PWs)   bands (ev):

   -20.4443 -10.4398  -7.4416  -7.1187   3.5243   3.5253   5.0375   5.1218
     6.2214   6.5813   7.1841   9.2871   9.8890  12.8803  12.8917  13.9545
    14.7253  15.6378  17.1173  17.6549

     occupation numbers 
     1.0000   1.0000   1.0000   1.0000   0.0000   0.0000   0.0000   0.0000
     0.0000   0.0000   0.0000   0.0000   0.0000   0.0000   0.0000   0.0000
     0.0000   0.0000   0.0000   0.0000

          k = 0.0000 0.3849 0.0000 (  2722 PWs)   bands (ev):

   -20.1737 -11.0274  -7.6487  -6.7179   3.0519   4.0086   5.5494   5.5774
     6.3493   7.0669   7.6350   9.7787  10.4314  13.0350  13.2122  14.8293
    14.8394  15.1674  16.1967  16.7948

     occupation numbers 
     1.0000   1.0000   1.0000   1.0000   0.0000   0.0000   0.0000   0.0000
     0.0000   0.0000   0.0000   0.0000   0.0000   0.0000   0.0000   0.0000
     0.0000   0.0000   0.0000   0.0000

          k = 0.0000 0.4170 0.0000 (  2738 PWs)   bands (ev):

   -19.9028 -11.5754  -7.8375  -6.3072   2.4879   4.4887   6.0930   6.0939
     6.5486   7.6276   8.1896  10.3104  11.0000  12.7843  13.3441  14.7322
    14.8736  15.2546  15.6991  15.9262

     occupation numbers 
     1.0000   1.0000   1.0000   1.0000   0.0000   0.0000   0.0000   0.0000
     0.0000   0.0000   0.0000   0.0000   0.0000   0.0000   0.0000   0.0000
     0.0000   0.0000   0.0000   0.0000

          k = 0.0000 0.4491 0.0000 (  2724 PWs)   bands (ev):

   -19.6411 -12.0542  -7.9713  -5.8984   1.9278   4.9187   6.4563   6.7092
     7.0287   8.2445   8.8139  10.8609  11.4995  12.2898  13.0546  14.0097
    14.3910  15.1295  15.2932  15.9676

     occupation numbers 
     1.0000   1.0000   1.0000   1.0000   0.0000   0.0000   0.0000   0.0000
     0.0000   0.0000   0.0000   0.0000   0.0000   0.0000   0.0000   0.0000
     0.0000   0.0000   0.0000   0.0000

          k = 0.0000 0.4811 0.0000 (  2724 PWs)   bands (ev):

   -19.4063 -12.4639  -8.0872  -5.5198   1.4111   5.2313   6.8309   7.3771
     7.6975   8.9056   9.4879  11.1957  11.3484  12.4664  12.4860  12.9921
    13.8067  14.5180  15.0736  16.0887

     occupation numbers 
     1.0000   1.0000   1.0000   1.0000   0.0000   0.0000   0.0000   0.0000
     0.0000   0.0000   0.0000   0.0000   0.0000   0.0000   0.0000   0.0000
     0.0000   0.0000   0.0000   0.0000

          k = 0.0000 0.5132 0.0000 (  2726 PWs)   bands (ev):

   -19.2174 -12.7783  -8.1687  -5.2058   0.9832   5.4075   7.3504   8.0857
     8.4436   9.5931  10.1149  10.5258  11.2900  11.9703  12.2735  13.0905
    13.1311  13.7100  14.8748  16.0513

     occupation numbers 
     1.0000   1.0000   1.0000   1.0000   0.0000   0.0000   0.0000   0.0000
     0.0000   0.0000   0.0000   0.0000   0.0000   0.0000   0.0000   0.0000
     0.0000   0.0000   0.0000   0.0000

          k = 0.0000 0.5453 0.0000 (  2722 PWs)   bands (ev):

   -19.0927 -12.9700  -8.2209  -4.9932   0.6970   5.4885   7.9823   8.8121
     9.2301   9.5973  10.1687  10.7568  10.9714  11.0953  12.0089  12.7163
    13.0480  13.9114  14.5412  15.5022

     occupation numbers 
     1.0000   1.0000   1.0000   1.0000   0.0000   0.0000   0.0000   0.0000
     0.0000   0.0000   0.0000   0.0000   0.0000   0.0000   0.0000   0.0000
     0.0000   0.0000   0.0000   0.0000

          k = 0.0000-0.5774 0.0000 (  2736 PWs)   bands (ev):

   -19.0515 -13.0504  -8.2436  -4.9131   0.5964   5.5097   8.4971   9.0024
     9.3362   9.9344  10.0843  10.1454  10.9923  11.5082  11.7368  11.9969
    13.2664  14.3165  14.4060  15.0055

     occupation numbers 
     1.0000   1.0000   1.0000   1.0000   0.0000   0.0000   0.0000   0.0000
     0.0000   0.0000   0.0000   0.0000   0.0000   0.0000   0.0000   0.0000
     0.0000   0.0000   0.0000   0.0000

          k = 0.0278 0.0481 0.0000 (  2747 PWs)   bands (ev):

   -22.0726  -9.4093  -5.5230  -5.4166   0.7357   1.8715   2.1375   3.4347
     3.9046   6.1044   6.6712   7.4434   7.6803   8.8837   9.4640  11.0854
    12.1096  15.5258  16.8525  21.1497

     occupation numbers 
     1.0000   1.0000   1.0000   1.0000   0.0000   0.0000   0.0000   0.0000
     0.0000   0.0000   0.0000   0.0000   0.0000   0.0000   0.0000   0.0000
     0.0000   0.0000   0.0000   0.0000

          k = 0.0278 0.0802 0.0000 (  2733 PWs)   bands (ev):

   -22.0122  -9.3217  -5.7642  -5.5424   0.8409   1.9670   2.2376   3.5283
     4.0066   6.1792   6.7589   7.4275   7.9470   8.8114   9.6465  11.0815
    12.2394  15.5855  16.9604  21.1354

     occupation numbers 
     1.0000   1.0000   1.0000   1.0000   0.0000   0.0000   0.0000   0.0000
     0.0000   0.0000   0.0000   0.0000   0.0000   0.0000   0.0000   0.0000
     0.0000   0.0000   0.0000   0.0000

          k = 0.0278 0.1123 0.0000 (  2731 PWs)   bands (ev):

   -21.9234  -9.2001  -6.1291  -5.7093   0.9954   2.1081   2.3872   3.6657
     4.1575   6.2786   6.8626   7.4324   8.3332   8.6717   9.9051  11.0999
    12.4289  15.6755  17.1184  21.0439

     occupation numbers 
     1.0000   1.0000   1.0000   1.0000   0.0000   0.0000   0.0000   0.0000
     0.0000   0.0000   0.0000   0.0000   0.0000   0.0000   0.0000   0.0000
     0.0000   0.0000   0.0000   0.0000

          k = 0.0278 0.1443 0.0000 (  2724 PWs)   bands (ev):

   -21.8056  -9.0373  -6.5747  -5.9206   1.1973   2.2954   2.5863   3.8473
     4.3558   6.3930   6.9342   7.5133   8.4865   8.8208  10.2338  11.1669
    12.6752  15.7952  17.3229  20.7551

     occupation numbers 
     1.0000   1.0000   1.0000   1.0000   0.0000   0.0000   0.0000   0.0000
     0.0000   0.0000   0.0000   0.0000   0.0000   0.0000   0.0000   0.0000
     0.0000   0.0000   0.0000   0.0000

          k = 0.0278 0.1764 0.0000 (  2720 PWs)   bands (ev):

   -21.6596  -8.8363  -7.0939  -6.1559   1.4449   2.5266   2.8344   4.0687
     4.5996   6.4857   6.9402   7.7008   8.2784   9.4001  10.6198  11.2934
    12.9710  15.9386  17.5693  20.2100

     occupation numbers 
     1.0000   1.0000   1.0000   1.0000   0.0000   0.0000   0.0000   0.0000
     0.0000   0.0000   0.0000   0.0000   0.0000   0.0000   0.0000   0.0000
     0.0000   0.0000   0.0000   0.0000

          k = 0.0278 0.2085 0.0000 (  2711 PWs)   bands (ev):

   -21.4866  -8.5959  -7.6645  -6.3999   1.7365   2.7991   3.1314   4.3236
     4.8859   6.4965   6.9055   7.9783   8.1373  10.0559  11.0589  11.4825
    13.3084  16.0907  17.8516  19.5496

     occupation numbers 
     1.0000   1.0000   1.0000   1.0000   0.0000   0.0000   0.0000   0.0000
     0.0000   0.0000   0.0000   0.0000   0.0000   0.0000   0.0000   0.0000
     0.0000   0.0000   0.0000   0.0000

          k = 0.0278 0.2406 0.0000 (  2705 PWs)   bands (ev):

   -21.2885  -8.3161  -8.2663  -6.6592   2.0712   3.1051   3.4769   4.5927
     5.2099   6.3636   6.8652   8.1556   8.3213  10.7483  11.5524  11.7296
    13.6758  16.2187  18.1583  18.9279

     occupation numbers 
     1.0000   1.0000   1.0000   1.0000   0.0000   0.0000   0.0000   0.0000
     0.0000   0.0000   0.0000   0.0000   0.0000   0.0000   0.0000   0.0000
     0.0000   0.0000   0.0000   0.0000

          k = 0.0278 0.2726 0.0000 (  2701 PWs)   bands (ev):

   -21.0673  -8.8862  -8.0045  -6.9142   2.4473   3.4229   3.8706   4.8209
     5.5602   6.1638   6.8435   8.3507   8.7158  11.4353  12.0262  12.1247
    14.0551  16.2531  18.4454  18.4524

     occupation numbers 
     1.0000   1.0000   1.0000   1.0000   0.0000   0.0000   0.0000   0.0000
     0.0000   0.0000   0.0000   0.0000   0.0000   0.0000   0.0000   0.0000
     0.0000   0.0000   0.0000   0.0000

          k = 0.0278 0.3047 0.0000 (  2699 PWs)   bands (ev):

   -20.8255  -9.5118  -7.6631  -7.1545   2.8627   3.6789   4.3118   4.9076
     5.9067   6.1324   6.8797   8.6712   9.1574  12.0580  12.3616  12.8093
    14.4149  16.1094  18.1840  18.3632

     occupation numbers 
     1.0000   1.0000   1.0000   1.0000   0.0000   0.0000   0.0000   0.0000
     0.0000   0.0000   0.0000   0.0000   0.0000   0.0000   0.0000   0.0000
     0.0000   0.0000   0.0000   0.0000

          k = 0.0278 0.3368 0.0000 (  2700 PWs)   bands (ev):

   -20.5676 -10.1319  -7.3792  -7.2941   3.3128   3.6705   4.7985   4.9957
     6.1810   6.3936   7.0535   9.0757   9.6430  12.5671  12.7180  13.5916
    14.7025  15.7839  17.5684  17.9478

     occupation numbers 
     1.0000   1.0000   1.0000   1.0000   0.0000   0.0000   0.0000   0.0000
     0.0000   0.0000   0.0000   0.0000   0.0000   0.0000   0.0000   0.0000
     0.0000   0.0000   0.0000   0.0000

          k = 0.0278 0.3689 0.0000 (  2717 PWs)   bands (ev):

   -20.3006 -10.7358  -7.5979  -6.9062   3.3024   3.7900   5.3258   5.3304
     6.3415   6.8283   7.4177   9.5409  10.1676  12.9101  13.0589  14.4138
    14.8548  15.3591  16.7011  17.2347

     occupation numbers 
     1.0000   1.0000   1.0000   1.0000   0.0000   0.0000   0.0000   0.0000
     0.0000   0.0000   0.0000   0.0000   0.0000   0.0000   0.0000   0.0000
     0.0000   0.0000   0.0000   0.0000

          k = 0.0278 0.4009 0.0000 (  2724 PWs)   bands (ev):

   -20.0281 -11.3030  -7.7863  -6.4978   2.7729   4.2797   5.8273   5.8724
     6.4773   7.3554   7.9229  10.0529  10.7264  12.9272  13.2970  14.8881
    14.9274  15.2616  15.7264  16.3302

     occupation numbers 
     1.0000   1.0000   1.0000   1.0000   0.0000   0.0000   0.0000   0.0000
     0.0000   0.0000   0.0000   0.0000   0.0000   0.0000   0.0000   0.0000
     0.0000   0.0000   0.0000   0.0000

          k = 0.0278 0.4330 0.0000 (  2724 PWs)   bands (ev):

   -19.7601 -11.8142  -7.9476  -6.0883   2.2049   4.7499   6.3317   6.4102
     6.7813   7.9452   8.5134  10.5945  11.2897  12.5356  13.2275  14.5265
    14.5776  15.1628  15.5605  15.9989

     occupation numbers 
     1.0000   1.0000   1.0000   1.0000   0.0000   0.0000   0.0000   0.0000
     0.0000   0.0000   0.0000   0.0000   0.0000   0.0000   0.0000   0.0000
     0.0000   0.0000   0.0000   0.0000

          k = 0.0278 0.4651 0.0000 (  2724 PWs)   bands (ev):

   -19.5107 -12.2612  -8.0784  -5.6946   1.6600   5.1394   6.6671   7.0527
     7.3709   8.5844   9.1639  11.1264  11.4878  12.2711  12.7693  13.5114
    14.1261  14.8874  15.1559  15.9882

     occupation numbers 
     1.0000   1.0000   1.0000   1.0000   0.0000   0.0000   0.0000   0.0000
     0.0000   0.0000   0.0000   0.0000   0.0000   0.0000   0.0000   0.0000
     0.0000   0.0000   0.0000   0.0000

          k = 0.0278 0.4972 0.0000 (  2726 PWs)   bands (ev):

   -19.2967 -12.6243  -8.1835  -5.3426   1.1838   5.3927   7.1024   7.7416
     8.0821   9.2607   9.8496  10.8485  11.4322  12.3003  12.4623  12.8285
    13.4539  14.1180  14.9625  16.1345

     occupation numbers 
     1.0000   1.0000   1.0000   1.0000   0.0000   0.0000   0.0000   0.0000
     0.0000   0.0000   0.0000   0.0000   0.0000   0.0000   0.0000   0.0000
     0.0000   0.0000   0.0000   0.0000

          k = 0.0278 0.5292 0.0000 (  2726 PWs)   bands (ev):

   -19.1381 -12.8817  -8.2494  -5.0720   0.8219   5.5220   7.6794   8.4622
     8.8550   9.9345   9.9623  10.6952  11.0068  11.5116  12.2439  12.9812
    13.1050  13.6356  14.6873  15.8140

     occupation numbers 
     1.0000   1.0000   1.0000   1.0000   0.0000   0.0000   0.0000   0.0000
     0.0000   0.0000   0.0000   0.0000   0.0000   0.0000   0.0000   0.0000
     0.0000   0.0000   0.0000   0.0000

          k = 0.0278 0.5613 0.0000 (  2719 PWs)   bands (ev):

   -19.0528 -13.0151  -8.2767  -4.9175   0.6261   5.5727   8.3215   9.1577
     9.2214   9.7088  10.0950  10.5768  10.8485  11.4563  11.7077  12.3228
    13.1861  14.2418  14.3879  15.1994

     occupation numbers 
     1.0000   1.0000   1.0000   1.0000   0.0000   0.0000   0.0000   0.0000
     0.0000   0.0000   0.0000   0.0000   0.0000   0.0000   0.0000   0.0000
     0.0000   0.0000   0.0000   0.0000

          k = 0.0556 0.0962 0.0000 (  2727 PWs)   bands (ev):

   -21.9380  -9.2175  -6.0607  -5.6878   0.9700   2.0850   2.3623   3.6433
     4.1327   6.2637   6.8643   7.4294   8.2458   8.6970   9.8719  11.0947
    12.3984  15.6607  17.0924  21.0604

     occupation numbers 
     1.0000   1.0000   1.0000   1.0000   0.0000   0.0000   0.0000   0.0000
     0.0000   0.0000   0.0000   0.0000   0.0000   0.0000   0.0000   0.0000
     0.0000   0.0000   0.0000   0.0000

          k = 0.0556 0.1283 0.0000 (  2720 PWs)   bands (ev):

   -21.8345  -9.0740  -6.4418  -5.8946   1.1480   2.2493   2.5367   3.8028
     4.3078   6.3685   6.9830   7.4701   8.5345   8.6275  10.1869  11.1469
    12.6184  15.7655  17.2728  20.8071

     occupation numbers 
     1.0000   1.0000   1.0000   1.0000   0.0000   0.0000   0.0000   0.0000
     0.0000   0.0000   0.0000   0.0000   0.0000   0.0000   0.0000   0.0000
     0.0000   0.0000   0.0000   0.0000

          k = 0.0556 0.1604 0.0000 (  2703 PWs)   bands (ev):

   -21.7022  -8.8896  -6.8993  -6.1191   1.3730   2.4589   2.7603   4.0047
     4.5300   6.4710   7.0573   7.5999   8.3439   9.0874  10.5813  11.2525
    12.8953  15.8952  17.4976  20.2794

     occupation numbers 
     1.0000   1.0000   1.0000   1.0000   0.0000   0.0000   0.0000   0.0000
     0.0000   0.0000   0.0000   0.0000   0.0000   0.0000   0.0000   0.0000
     0.0000   0.0000   0.0000   0.0000

          k = 0.0556 0.1925 0.0000 (  2713 PWs)   bands (ev):

   -21.5439  -8.6736  -7.4407  -6.3766   1.6427   2.7097   3.0330   4.2413
     4.7968   6.5117   7.0630   7.8366   8.1734   9.6073  11.0370  11.4164
    13.2205  16.0364  17.7616  19.6013

     occupation numbers 
     1.0000   1.0000   1.0000   1.0000   0.0000   0.0000   0.0000   0.0000
     0.0000   0.0000   0.0000   0.0000   0.0000   0.0000   0.0000   0.0000
     0.0000   0.0000   0.0000   0.0000

          k = 0.0556 0.2245 0.0000 (  2711 PWs)   bands (ev):

   -21.3590  -8.4152  -8.0099  -6.6463   1.9568   2.9984   3.3545   4.5027
     5.1057   6.4320   7.0373   8.1315   8.1555  10.1801  11.5522  11.6380
    13.5895  16.1601  18.0578  18.9479

     occupation numbers 
     1.0000   1.0000   1.0000   1.0000   0.0000   0.0000   0.0000   0.0000
     0.0000   0.0000   0.0000   0.0000   0.0000   0.0000   0.0000   0.0000
     0.0000   0.0000   0.0000   0.0000

          k = 0.0556 0.2566 0.0000 (  2703 PWs)   bands (ev):

   -21.1490  -8.6081  -8.1201  -6.9063   2.3138   3.3112   3.7245   4.7535
     5.4507   6.2432   7.0097   8.2650   8.5325  10.7865  11.9107  12.1225
    13.9891  16.2031  18.3657  18.4422

     occupation numbers 
     1.0000   1.0000   1.0000   1.0000   0.0000   0.0000   0.0000   0.0000
     0.0000   0.0000   0.0000   0.0000   0.0000   0.0000   0.0000   0.0000
     0.0000   0.0000   0.0000   0.0000

          k = 0.0556 0.2887 0.0000 (  2702 PWs)   bands (ev):

   -20.9180  -9.2192  -7.7954  -7.1594   2.7117   3.6041   4.1426   4.9027
     5.8172   6.1180   7.0057   8.5389   8.9569  11.4022  12.2238  12.7403
    14.3926  16.0791  18.1762  18.5643

     occupation numbers 
     1.0000   1.0000   1.0000   1.0000   0.0000   0.0000   0.0000   0.0000
     0.0000   0.0000   0.0000   0.0000   0.0000   0.0000   0.0000   0.0000
     0.0000   0.0000   0.0000   0.0000

          k = 0.0556 0.3208 0.0000 (  2709 PWs)   bands (ev):

   -20.6694  -9.8362  -7.4421  -7.4032   3.1472   3.7341   4.6076   4.9459
     6.1656   6.2672   7.0744   8.9079   9.4243  11.9905  12.5617  13.4073
    14.7530  15.7818  18.0488  18.0875

     occupation numbers 
     1.0000   1.0000   1.0000   1.0000   0.0000   0.0000   0.0000   0.0000
     0.0000   0.0000   0.0000   0.0000   0.0000   0.0000   0.0000   0.0000
     0.0000   0.0000   0.0000   0.0000

          k = 0.0556 0.3528 0.0000 (  2719 PWs)   bands (ev):

   -20.4074 -10.4426  -7.6272  -7.0626   3.5052   3.6161   5.1176   5.1738
     6.4182   6.6411   7.3045   9.3443   9.9326  12.4953  12.8949  14.1095
    14.9853  15.4093  17.2038  17.6551

     occupation numbers 
     1.0000   1.0000   1.0000   1.0000   0.0000   0.0000   0.0000   0.0000
     0.0000   0.0000   0.0000   0.0000   0.0000   0.0000   0.0000   0.0000
     0.0000   0.0000   0.0000   0.0000

          k = 0.0556 0.3849 0.0000 (  2721 PWs)   bands (ev):

   -20.1361 -11.0207  -7.8279  -6.6599   3.0332   4.1103   5.6124   5.6652
     6.5635   7.1303   7.7250   9.8314  10.4779  12.8017  13.1595  14.7989
    15.0412  15.0559  16.3052  16.7430

     occupation numbers 
     1.0000   1.0000   1.0000   1.0000   0.0000   0.0000   0.0000   0.0000
     0.0000   0.0000   0.0000   0.0000   0.0000   0.0000   0.0000   0.0000
     0.0000   0.0000   0.0000   0.0000

          k = 0.0556 0.4170 0.0000 (  2726 PWs)   bands (ev):

   -19.8657 -11.5532  -8.0048  -6.2556   2.4781   4.6101   6.1588   6.2150
     6.7230   7.6903   8.2683  10.3527  11.0453  12.7215  13.2216  14.7682
    14.8614  15.3222  15.6063  15.8850

     occupation numbers 
     1.0000   1.0000   1.0000   1.0000   0.0000   0.0000   0.0000   0.0000
     0.0000   0.0000   0.0000   0.0000   0.0000   0.0000   0.0000   0.0000
     0.0000   0.0000   0.0000   0.0000

          k = 0.0556 0.4491 0.0000 (  2724 PWs)   bands (ev):

   -19.6062 -12.0288  -8.1542  -5.8509   1.9221   5.0746   6.6248   6.7727
     7.1257   8.3041   8.8873  10.8825  11.5257  12.3359  12.9664  14.0701
    14.3913  15.0719  15.3375  16.0232

     occupation numbers 
     1.0000   1.0000   1.0000   1.0000   0.0000   0.0000   0.0000   0.0000
     0.0000   0.0000   0.0000   0.0000   0.0000   0.0000   0.0000   0.0000
     0.0000   0.0000   0.0000   0.0000

          k = 0.0556 0.4811 0.0000 (  2722 PWs)   bands (ev):

   -19.3732 -12.4322  -8.2685  -5.4744   1.4106   5.4358   6.9714   7.4373
     7.7761   8.9597   9.5581  11.2350  11.3270  12.5091  12.5345  13.0634
    13.7805  14.5450  15.0325  16.0553

     occupation numbers 
     1.0000   1.0000   1.0000   1.0000   0.0000   0.0000   0.0000   0.0000
     0.0000   0.0000   0.0000   0.0000   0.0000   0.0000   0.0000   0.0000
     0.0000   0.0000   0.0000   0.0000

          k = 0.0556 0.5132 0.0000 (  2722 PWs)   bands (ev):

   -19.1857 -12.7425  -8.3498  -5.1610   0.9898   5.6497   7.4549   8.1397
     8.5185   9.6364  10.1746  10.5961  11.2759  12.0419  12.3023  13.1484
    13.1694  13.7737  14.7354  16.0203

     occupation numbers 
     1.0000   1.0000   1.0000   1.0000   0.0000   0.0000   0.0000   0.0000
     0.0000   0.0000   0.0000   0.0000   0.0000   0.0000   0.0000   0.0000
     0.0000   0.0000   0.0000   0.0000

          k = 0.0556 0.5453 0.0000 (  2727 PWs)   bands (ev):

   -19.0626 -12.9395  -8.4045  -4.9496   0.7066   5.7482   8.0625   8.8519
     9.3017   9.6676  10.1856  10.8147  11.0413  11.1690  12.0189  12.7782
    13.0585  13.9705  14.4848  15.5351

     occupation numbers 
     1.0000   1.0000   1.0000   1.0000   0.0000   0.0000   0.0000   0.0000
     0.0000   0.0000   0.0000   0.0000   0.0000   0.0000   0.0000   0.0000
     0.0000   0.0000   0.0000   0.0000

          k = 0.0556 0.5774 0.0000 (  2726 PWs)   bands (ev):

   -19.0204 -13.0077  -8.4196  -4.8701   0.6080   5.7765   8.5597   9.0886
     9.3446   9.9963  10.1572  10.2204  11.0166  11.5677  11.8015  12.0698
    13.1949  14.3654  14.4505  15.0715

     occupation numbers 
     1.0000   1.0000   1.0000   1.0000   0.0000   0.0000   0.0000   0.0000
     0.0000   0.0000   0.0000   0.0000   0.0000   0.0000   0.0000   0.0000
     0.0000   0.0000   0.0000   0.0000

          k = 0.0833 0.1443 0.0000 (  2711 PWs)   bands (ev):

   -21.7170  -8.9115  -6.8349  -6.1247   1.3489   2.4353   2.7357   3.9819
     4.5068   6.4596   7.1266   7.5484   8.3594   8.9620  10.5712  11.2389
    12.8699  15.8801  17.4735  20.2908

     occupation numbers 
     1.0000   1.0000   1.0000   1.0000   0.0000   0.0000   0.0000   0.0000
     0.0000   0.0000   0.0000   0.0000   0.0000   0.0000   0.0000   0.0000
     0.0000   0.0000   0.0000   0.0000

          k = 0.0833 0.1764 0.0000 (  2713 PWs)   bands (ev):

   -21.5723  -8.7107  -7.3061  -6.3909   1.5964   2.6649   2.9839   4.1996
     4.7530   6.5142   7.2287   7.7153   8.1986   9.3364  11.0330  11.3845
    13.1801  16.0075  17.7164  19.5968

     occupation numbers 
     1.0000   1.0000   1.0000   1.0000   0.0000   0.0000   0.0000   0.0000
     0.0000   0.0000   0.0000   0.0000   0.0000   0.0000   0.0000   0.0000
     0.0000   0.0000   0.0000   0.0000

          k = 0.0833 0.2085 0.0000 (  2713 PWs)   bands (ev):

   -21.4011  -8.4746  -7.8275  -6.6647   1.8891   2.9332   3.2812   4.4458
     5.0441   6.4680   7.2630   7.9952   8.1298   9.7705  11.5533  11.5841
    13.5462  16.1178  17.9963  18.9101

     occupation numbers 
     1.0000   1.0000   1.0000   1.0000   0.0000   0.0000   0.0000   0.0000
     0.0000   0.0000   0.0000   0.0000   0.0000   0.0000   0.0000   0.0000
     0.0000   0.0000   0.0000   0.0000

          k = 0.0833 0.2406 0.0000 (  2705 PWs)   bands (ev):

   -21.2043  -8.3787  -8.1997  -6.9426   2.2263   3.2317   3.6273   4.6969
     5.3773   6.3058   7.2640   8.2182   8.3541  10.2615  11.8334  12.1143
    13.9617  16.1471  18.3022  18.3728

     occupation numbers 
     1.0000   1.0000   1.0000   1.0000   0.0000   0.0000   0.0000   0.0000
     0.0000   0.0000   0.0000   0.0000   0.0000   0.0000   0.0000   0.0000
     0.0000   0.0000   0.0000   0.0000

          k = 0.0833 0.2726 0.0000 (  2707 PWs)   bands (ev):

   -20.9847  -8.9646  -7.8910  -7.2194   2.6059   3.5321   4.0219   4.8855
     5.7457   6.1438   7.2563   8.4506   8.7657  10.7975  12.1231  12.6974
    14.4030  16.0056  18.1014  18.5909

     occupation numbers 
     1.0000   1.0000   1.0000   1.0000   0.0000   0.0000   0.0000   0.0000
     0.0000   0.0000   0.0000   0.0000   0.0000   0.0000   0.0000   0.0000
     0.0000   0.0000   0.0000   0.0000

          k = 0.0833 0.3047 0.0000 (  2713 PWs)   bands (ev):

   -20.7462  -9.5646  -7.5538  -7.4743   3.0256   3.7405   4.4645   4.9422
     6.1331   6.1980   7.2718   8.7849   9.2220  11.3624  12.4374  13.2989
    14.8298  15.6942  18.0840  18.5051

     occupation numbers 
     1.0000   1.0000   1.0000   1.0000   0.0000   0.0000   0.0000   0.0000
     0.0000   0.0000   0.0000   0.0000   0.0000   0.0000   0.0000   0.0000
     0.0000   0.0000   0.0000   0.0000

          k = 0.0833 0.3368 0.0000 (  2713 PWs)   bands (ev):

   -20.4911 -10.1596  -7.7141  -7.1814   3.4834   3.6576   4.9540   5.0801
     6.4946   6.5054   7.3651   9.1913   9.7182  11.9181  12.7488  13.9201
    15.1627  15.3338  17.7168  18.0077

     occupation numbers 
     1.0000   1.0000   1.0000   1.0000   0.0000   0.0000   0.0000   0.0000
     0.0000   0.0000   0.0000   0.0000   0.0000   0.0000   0.0000   0.0000
     0.0000   0.0000   0.0000   0.0000

          k = 0.0833 0.3689 0.0000 (  2720 PWs)   bands (ev):

   -20.2253 -10.7331  -7.9348  -6.7947   3.2610   3.9741   5.4501   5.4879
     6.7446   6.9531   7.6326   9.6501  10.2500  12.3937  12.9980  14.5538
    15.0418  15.2481  16.8978  17.2112

     occupation numbers 
     1.0000   1.0000   1.0000   1.0000   0.0000   0.0000   0.0000   0.0000
     0.0000   0.0000   0.0000   0.0000   0.0000   0.0000   0.0000   0.0000
     0.0000   0.0000   0.0000   0.0000

          k = 0.0833 0.4009 0.0000 (  2719 PWs)   bands (ev):

   -19.9546 -11.2758  -8.1260  -6.3895   2.7361   4.4877   5.9561   6.0573
     6.8877   7.4817   8.0915  10.1461  10.8106  12.6550  13.0927  14.8837
    14.9690  15.2600  15.9235  16.2578

     occupation numbers 
     1.0000   1.0000   1.0000   1.0000   0.0000   0.0000   0.0000   0.0000
     0.0000   0.0000   0.0000   0.0000   0.0000   0.0000   0.0000   0.0000
     0.0000   0.0000   0.0000   0.0000

          k = 0.0833 0.4330 0.0000 (  2724 PWs)   bands (ev):

   -19.6903 -11.7774  -8.2897  -5.9869   2.1827   5.0020   6.5388   6.6124
     7.0711   8.0674   8.6647  10.6549  11.3559  12.5256  12.9753  14.5860
    14.6734  15.1216  15.5697  15.8746

     occupation numbers 
     1.0000   1.0000   1.0000   1.0000   0.0000   0.0000   0.0000   0.0000
     0.0000   0.0000   0.0000   0.0000   0.0000   0.0000   0.0000   0.0000
     0.0000   0.0000   0.0000   0.0000

          k = 0.0833 0.4651 0.0000 (  2722 PWs)   bands (ev):

   -19.4439 -12.2107  -8.4228  -5.5975   1.6524   5.4703   6.9928   7.1763
     7.5446   8.6976   9.3070  11.1192  11.5250  12.4150  12.6963  13.6445
    14.0809  14.8466  15.2263  16.0284

     occupation numbers 
     1.0000   1.0000   1.0000   1.0000   0.0000   0.0000   0.0000   0.0000
     0.0000   0.0000   0.0000   0.0000   0.0000   0.0000   0.0000   0.0000
     0.0000   0.0000   0.0000   0.0000

          k = 0.0833 0.4972 0.0000 (  2732 PWs)   bands (ev):

   -19.2341 -12.5678  -8.5294  -5.2546   1.1862   5.8155   7.3540   7.8543
     8.2350   9.3557   9.9828  10.9528  11.3368  12.4154  12.5983  12.9612
    13.4557  14.2106  14.7883  16.0097

     occupation numbers 
     1.0000   1.0000   1.0000   1.0000   0.0000   0.0000   0.0000   0.0000
     0.0000   0.0000   0.0000   0.0000   0.0000   0.0000   0.0000   0.0000
     0.0000   0.0000   0.0000   0.0000

          k = 0.0833 0.5292 0.0000 (  2732 PWs)   bands (ev):

   -19.0780 -12.8158  -8.6012  -4.9883   0.8340   6.0066   7.8665   8.5531
     9.0025   9.9885  10.0840  10.8424  11.0496  11.6567  12.2310  13.0911
    13.2118  13.7723  14.4850  15.8138

     occupation numbers 
     1.0000   1.0000   1.0000   1.0000   0.0000   0.0000   0.0000   0.0000
     0.0000   0.0000   0.0000   0.0000   0.0000   0.0000   0.0000   0.0000
     0.0000   0.0000   0.0000   0.0000

          k = 0.0833 0.5613 0.0000 (  2717 PWs)   bands (ev):

   -18.9932 -12.9449  -8.6281  -4.8256   0.6467   6.0835   8.4628   9.1950
     9.3745   9.8589  10.1659  10.7231  10.9406  11.5930  11.7812  12.4569
    13.0992  14.3404  14.4257  15.3046

     occupation numbers 
     1.0000   1.0000   1.0000   1.0000   0.0000   0.0000   0.0000   0.0000
     0.0000   0.0000   0.0000   0.0000   0.0000   0.0000   0.0000   0.0000
     0.0000   0.0000   0.0000   0.0000

          k = 0.1111 0.1925 0.0000 (  2709 PWs)   bands (ev):

   -21.4153  -8.4939  -7.7526  -6.6768   1.8669   2.9117   3.2568   4.4272
     5.0238   6.4826   7.4002   7.8964   8.1337   9.6149  11.5538  11.5664
    13.5341  16.1025  17.9757  18.8894

     occupation numbers 
     1.0000   1.0000   1.0000   1.0000   0.0000   0.0000   0.0000   0.0000
     0.0000   0.0000   0.0000   0.0000   0.0000   0.0000   0.0000   0.0000
     0.0000   0.0000   0.0000   0.0000

          k = 0.1111 0.2245 0.0000 (  2703 PWs)   bands (ev):

   -21.2317  -8.2482  -8.2360  -6.9793   2.1829   3.1921   3.5788   4.6678
     5.3401   6.3440   7.5126   8.1861   8.1999   9.9547  11.7952  12.1067
    13.9522  16.1138  18.2685  18.3197

     occupation numbers 
     1.0000   1.0000   1.0000   1.0000   0.0000   0.0000   0.0000   0.0000
     0.0000   0.0000   0.0000   0.0000   0.0000   0.0000   0.0000   0.0000
     0.0000   0.0000   0.0000   0.0000

          k = 0.1111 0.2566 0.0000 (  2703 PWs)   bands (ev):

   -21.0247  -8.7768  -7.9444  -7.2865   2.5432   3.4852   3.9497   4.8698
     5.6988   6.1776   7.5638   8.4016   8.5676  10.3620  12.0623  12.6686
    14.4204  15.9418  18.0293  18.5760

     occupation numbers 
     1.0000   1.0000   1.0000   1.0000   0.0000   0.0000   0.0000   0.0000
     0.0000   0.0000   0.0000   0.0000   0.0000   0.0000   0.0000   0.0000
     0.0000   0.0000   0.0000   0.0000

          k = 0.1111 0.2887 0.0000 (  2719 PWs)   bands (ev):

   -20.7980  -9.3424  -7.6264  -7.5748   2.9450   3.7237   4.3689   4.9501
     6.0924   6.1703   7.5902   8.7052   9.0110  10.8321  12.3516  13.2290
    14.8938  15.5924  18.0295  18.7806

     occupation numbers 
     1.0000   1.0000   1.0000   1.0000   0.0000   0.0000   0.0000   0.0000
     0.0000   0.0000   0.0000   0.0000   0.0000   0.0000   0.0000   0.0000
     0.0000   0.0000   0.0000   0.0000

          k = 0.1111 0.3208 0.0000 (  2729 PWs)   bands (ev):

   -20.5532  -9.9093  -7.8475  -7.2761   3.3881   3.7405   4.8362   5.0354
     6.4170   6.5065   7.6262   9.0818   9.4993  11.3438  12.6332  13.7978
    15.2092  15.3171  18.1430  18.2561

     occupation numbers 
     1.0000   1.0000   1.0000   1.0000   0.0000   0.0000   0.0000   0.0000
     0.0000   0.0000   0.0000   0.0000   0.0000   0.0000   0.0000   0.0000
     0.0000   0.0000   0.0000   0.0000

          k = 0.1111 0.3528 0.0000 (  2719 PWs)   bands (ev):

   -20.2932 -10.4636  -8.0792  -6.8968   3.4394   3.8701   5.3389   5.3506
     6.8236   6.8940   7.7355   9.5121  10.0262  11.8647  12.8487  14.3806
    14.9343  15.5318  17.4544  17.7327

     occupation numbers 
     1.0000   1.0000   1.0000   1.0000   0.0000   0.0000   0.0000   0.0000
     0.0000   0.0000   0.0000   0.0000   0.0000   0.0000   0.0000   0.0000
     0.0000   0.0000   0.0000   0.0000

          k = 0.1111 0.3849 0.0000 (  2726 PWs)   bands (ev):

   -20.0264 -11.0101  -8.2940  -6.5031   2.9593   4.3839   5.8018   5.9093
     7.1574   7.3194   8.0235   9.9788  10.5783  12.3072  12.9196  14.8614
    14.9557  15.3347  16.5792  16.7488

     occupation numbers 
     1.0000   1.0000   1.0000   1.0000   0.0000   0.0000   0.0000   0.0000
     0.0000   0.0000   0.0000   0.0000   0.0000   0.0000   0.0000   0.0000
     0.0000   0.0000   0.0000   0.0000

          k = 0.1111 0.4170 0.0000 (  2719 PWs)   bands (ev):

   -19.7595 -11.5114  -8.4765  -6.0969   2.4256   4.9203   6.3520   6.5027
     7.3046   7.8760   8.5096  10.4582  11.1376  12.5352  12.8407  14.8511
    14.8966  15.5214  15.6524  15.8564

     occupation numbers 
     1.0000   1.0000   1.0000   1.0000   0.0000   0.0000   0.0000   0.0000
     0.0000   0.0000   0.0000   0.0000   0.0000   0.0000   0.0000   0.0000
     0.0000   0.0000   0.0000   0.0000

          k = 0.1111 0.4491 0.0000 (  2715 PWs)   bands (ev):

   -19.5048 -11.9629  -8.6289  -5.7012   1.8920   5.4555   6.9605   7.0704
     7.5023   8.4780   9.1078  10.9005  11.5648  12.4791  12.7021  14.2293
    14.4574  14.9299  15.4885  16.1697

     occupation numbers 
     1.0000   1.0000   1.0000   1.0000   0.0000   0.0000   0.0000   0.0000
     0.0000   0.0000   0.0000   0.0000   0.0000   0.0000   0.0000   0.0000
     0.0000   0.0000   0.0000   0.0000

          k = 0.1111 0.4811 0.0000 (  2722 PWs)   bands (ev):

   -19.2783 -12.3523  -8.7542  -5.3338   1.4033   5.9346   7.4328   7.6110
     8.0222   9.1097   9.7656  11.1940  11.3371  12.5855  12.7371  13.2752
    13.7413  14.5864  15.0255  15.9308

     occupation numbers 
     1.0000   1.0000   1.0000   1.0000   0.0000   0.0000   0.0000   0.0000
     0.0000   0.0000   0.0000   0.0000   0.0000   0.0000   0.0000   0.0000
     0.0000   0.0000   0.0000   0.0000

          k = 0.1111 0.5132 0.0000 (  2724 PWs)   bands (ev):

   -19.0952 -12.6507  -8.8400  -5.0268   1.0004   6.2786   7.7992   8.2847
     8.7438   9.7371  10.3444  10.8075  11.1868  12.2551  12.4048  13.2937
    13.3130  13.9592  14.5048  15.8789

     occupation numbers 
     1.0000   1.0000   1.0000   1.0000   0.0000   0.0000   0.0000   0.0000
     0.0000   0.0000   0.0000   0.0000   0.0000   0.0000   0.0000   0.0000
     0.0000   0.0000   0.0000   0.0000

          k = 0.1111 0.5453 0.0000 (  2731 PWs)   bands (ev):

   -18.9763 -12.8396  -8.8977  -4.8197   0.7284   6.4547   8.3140   8.9315
     9.5157   9.8838  10.2011  10.9921  11.2503  11.3904  12.0324  12.9614
    13.1115  14.1440  14.4006  15.6116

     occupation numbers 
     1.0000   1.0000   1.0000   1.0000   0.0000   0.0000   0.0000   0.0000
     0.0000   0.0000   0.0000   0.0000   0.0000   0.0000   0.0000   0.0000
     0.0000   0.0000   0.0000   0.0000

          k = 0.1111 0.5774 0.0000 (  2716 PWs)   bands (ev):

   -18.9326 -12.8997  -8.9143  -4.7282   0.6363   6.5047   8.7412   9.3060
     9.3546  10.1838  10.3752  10.4456  11.0770  11.7527  11.9898  12.2880
    13.0228  14.5285  14.5661  15.2637

     occupation numbers 
     1.0000   1.0000   1.0000   1.0000   0.0000   0.0000   0.0000   0.0000
     0.0000   0.0000   0.0000   0.0000   0.0000   0.0000   0.0000   0.0000
     0.0000   0.0000   0.0000   0.0000

          k = 0.1389 0.2406 0.0000 (  2699 PWs)   bands (ev):

   -21.0379  -8.7039  -7.9630  -7.3147   2.5227   3.4691   3.9256   4.8641
     5.6825   6.1936   7.7435   8.3863   8.4428  10.1997  12.0418  12.6582
    14.4292  15.9171  18.0010  18.5680

     occupation numbers 
     1.0000   1.0000   1.0000   1.0000   0.0000   0.0000   0.0000   0.0000
     0.0000   0.0000   0.0000   0.0000   0.0000   0.0000   0.0000   0.0000
     0.0000   0.0000   0.0000   0.0000

          k = 0.1389 0.2726 0.0000 (  2715 PWs)   bands (ev):

   -20.8239  -9.2056  -7.6626  -7.6417   2.9052   3.7112   4.3211   4.9576
     6.0669   6.1652   7.8982   8.6662   8.8028  10.5246  12.3076  13.1945
    14.9329  15.5284  17.9905  18.8565

     occupation numbers 
     1.0000   1.0000   1.0000   1.0000   0.0000   0.0000   0.0000   0.0000
     0.0000   0.0000   0.0000   0.0000   0.0000   0.0000   0.0000   0.0000
     0.0000   0.0000   0.0000   0.0000

          k = 0.1389 0.3047 0.0000 (  2723 PWs)   bands (ev):

   -20.5896  -9.7212  -7.9545  -7.3266   3.3315   3.7861   4.7653   5.0228
     6.3700   6.4891   7.9860   9.0169   9.2563  10.9260  12.5602  13.7302
    15.1080  15.4232  18.1505  18.7880

     occupation numbers 
     1.0000   1.0000   1.0000   1.0000   0.0000   0.0000   0.0000   0.0000
     0.0000   0.0000   0.0000   0.0000   0.0000   0.0000   0.0000   0.0000
     0.0000   0.0000   0.0000   0.0000

          k = 0.1389 0.3368 0.0000 (  2729 PWs)   bands (ev):

   -20.3395 -10.2478  -8.2311  -6.9664   3.5586   3.7988   5.2575   5.2729
     6.7398   6.9342   8.0549   9.4193   9.7702  11.3867  12.7348  14.2723
    14.8190  15.7662  17.9987  18.1639

     occupation numbers 
     1.0000   1.0000   1.0000   1.0000   0.0000   0.0000   0.0000   0.0000
     0.0000   0.0000   0.0000   0.0000   0.0000   0.0000   0.0000   0.0000
     0.0000   0.0000   0.0000   0.0000

          k = 0.1389 0.3689 0.0000 (  2725 PWs)   bands (ev):

   -20.0786 -10.7593  -8.4765  -6.5836   3.1358   4.3048   5.6950   5.7971
     7.2040   7.3570   8.1731   9.8555  10.3211  11.8676  12.7588  14.7764
    14.8256  15.7083  17.2370  17.3372

     occupation numbers 
     1.0000   1.0000   1.0000   1.0000   0.0000   0.0000   0.0000   0.0000
     0.0000   0.0000   0.0000   0.0000   0.0000   0.0000   0.0000   0.0000
     0.0000   0.0000   0.0000   0.0000

          k = 0.1389 0.4009 0.0000 (  2722 PWs)   bands (ev):

   -19.8139 -11.2576  -8.6886  -6.1836   2.6349   4.8434   6.2125   6.3812
     7.6484   7.7308   8.4675  10.3001  10.8826  12.2906  12.6622  14.9440
    15.1431  15.4571  16.2360  16.3351

     occupation numbers 
     1.0000   1.0000   1.0000   1.0000   0.0000   0.0000   0.0000   0.0000
     0.0000   0.0000   0.0000   0.0000   0.0000   0.0000   0.0000   0.0000
     0.0000   0.0000   0.0000   0.0000

          k = 0.1389 0.4330 0.0000 (  2716 PWs)   bands (ev):

   -19.5563 -11.7155  -8.8655  -5.7819   2.1143   5.4036   6.7910   7.0003
     7.8025   8.3033   8.9734  10.7033  11.3916  12.5341  12.5755  14.6260
    14.8941  15.2338  15.6823  16.0109

     occupation numbers 
     1.0000   1.0000   1.0000   1.0000   0.0000   0.0000   0.0000   0.0000
     0.0000   0.0000   0.0000   0.0000   0.0000   0.0000   0.0000   0.0000
     0.0000   0.0000   0.0000   0.0000

          k = 0.1389 0.4651 0.0000 (  2713 PWs)   bands (ev):

   -19.3168 -12.1198  -9.0038  -5.4037   1.6170   5.9617   7.4115   7.5882
     8.0003   8.9037   9.5901  10.9840  11.5592  12.6135  12.7016  13.8934
    14.1496  14.7260  15.4253  16.1064

     occupation numbers 
     1.0000   1.0000   1.0000   1.0000   0.0000   0.0000   0.0000   0.0000
     0.0000   0.0000   0.0000   0.0000   0.0000   0.0000   0.0000   0.0000
     0.0000   0.0000   0.0000   0.0000

          k = 0.1389 0.4972 0.0000 (  2718 PWs)   bands (ev):

   -19.1138 -12.4504  -9.1191  -5.0680   1.1815   6.4617   7.9348   8.0536
     8.5513   9.5024  10.2412  11.1033  11.1557  12.6591  12.8635  13.2254
    13.5081  14.3565  14.7534  15.7698

     occupation numbers 
     1.0000   1.0000   1.0000   1.0000   0.0000   0.0000   0.0000   0.0000
     0.0000   0.0000   0.0000   0.0000   0.0000   0.0000   0.0000   0.0000
     0.0000   0.0000   0.0000   0.0000

          k = 0.1389 0.5292 0.0000 (  2717 PWs)   bands (ev):

   -18.9631 -12.6861  -9.1939  -4.8052   0.8519   6.8133   8.2866   8.6730
     9.2974  10.0231  10.3276  11.1288  11.1379  11.9459  12.2677  13.3317
    13.4108  14.0439  14.3573  15.7275

     occupation numbers 
     1.0000   1.0000   1.0000   1.0000   0.0000   0.0000   0.0000   0.0000
     0.0000   0.0000   0.0000   0.0000   0.0000   0.0000   0.0000   0.0000
     0.0000   0.0000   0.0000   0.0000

          k = 0.1389 0.5613 0.0000 (  2715 PWs)   bands (ev):

   -18.8827 -12.8103  -9.2281  -4.6537   0.6700   6.9702   8.7501   9.1358
     9.6931  10.1613  10.3009  11.0152  11.1300  11.8641  11.9331  12.7205
    13.0358  14.5201  14.5775  15.4892

     occupation numbers 
     1.0000   1.0000   1.0000   1.0000   0.0000   0.0000   0.0000   0.0000
     0.0000   0.0000   0.0000   0.0000   0.0000   0.0000   0.0000   0.0000
     0.0000   0.0000   0.0000   0.0000

          k = 0.1667 0.2887 0.0000 (  2717 PWs)   bands (ev):

   -20.6017  -9.6507  -7.9935  -7.3430   3.3125   3.7994   4.7416   5.0213
     6.3556   6.4797   8.1986   8.9953   9.1001  10.7762  12.5352  13.7090
    15.0700  15.4606  18.1444  19.0599

     occupation numbers 
     1.0000   1.0000   1.0000   1.0000   0.0000   0.0000   0.0000   0.0000
     0.0000   0.0000   0.0000   0.0000   0.0000   0.0000   0.0000   0.0000
     0.0000   0.0000   0.0000   0.0000

          k = 0.1667 0.3208 0.0000 (  2719 PWs)   bands (ev):

   -20.3616 -10.1119  -8.3237  -6.9971   3.6246   3.7633   5.2107   5.2440
     6.6991   6.9316   8.4037   9.3726   9.5078  11.1189  12.6733  14.2233
    14.7501  15.9019  18.3203  18.5925

     occupation numbers 
     1.0000   1.0000   1.0000   1.0000   0.0000   0.0000   0.0000   0.0000
     0.0000   0.0000   0.0000   0.0000   0.0000   0.0000   0.0000   0.0000
     0.0000   0.0000   0.0000   0.0000

          k = 0.1667 0.3528 0.0000 (  2719 PWs)   bands (ev):

   -20.1097 -10.5742  -8.6241  -6.6273   3.2495   4.2553   5.6331   5.7281
     7.1353   7.4102   8.5283   9.7802  10.0113  11.5349  12.6472  14.7033
    14.7485  16.0507  17.7932  17.9283

     occupation numbers 
     1.0000   1.0000   1.0000   1.0000   0.0000   0.0000   0.0000   0.0000
     0.0000   0.0000   0.0000   0.0000   0.0000   0.0000   0.0000   0.0000
     0.0000   0.0000   0.0000   0.0000

          k = 0.1667 0.3849 0.0000 (  2719 PWs)   bands (ev):

   -19.8507 -11.0374  -8.8790  -6.2434   2.7841   4.7854   6.1200   6.2928
     7.6333   7.8744   8.6616  10.1887  10.5655  11.9910  12.5101  14.9090
    15.2645  15.6774  16.9486  16.9570

     occupation numbers 
     1.0000   1.0000   1.0000   1.0000   0.0000   0.0000   0.0000   0.0000
     0.0000   0.0000   0.0000   0.0000   0.0000   0.0000   0.0000   0.0000
     0.0000   0.0000   0.0000   0.0000

          k = 0.1667 0.4170 0.0000 (  2724 PWs)   bands (ev):

   -19.5941 -11.4838  -9.0994  -5.8508   2.2927   5.3474   6.6684   6.9024
     8.1749   8.2023   8.9532  10.5442  11.1046  12.4187  12.4250  14.9625
    15.1616  15.8323  15.9403  16.0217

     occupation numbers 
     1.0000   1.0000   1.0000   1.0000   0.0000   0.0000   0.0000   0.0000
     0.0000   0.0000   0.0000   0.0000   0.0000   0.0000   0.0000   0.0000
     0.0000   0.0000   0.0000   0.0000

          k = 0.1667 0.4491 0.0000 (  2720 PWs)   bands (ev):

   -19.3491 -11.8913  -9.2775  -5.4601   1.8063   5.9326   7.2581   7.5482
     8.3599   8.7420   9.4732  10.7818  11.5027  12.5299  12.7472  14.3803
    14.6961  14.9503  15.7766  16.3633

     occupation numbers 
     1.0000   1.0000   1.0000   1.0000   0.0000   0.0000   0.0000   0.0000
     0.0000   0.0000   0.0000   0.0000   0.0000   0.0000   0.0000   0.0000
     0.0000   0.0000   0.0000   0.0000

          k = 0.1667 0.4811 0.0000 (  2716 PWs)   bands (ev):

   -19.1307 -12.2350  -9.4106  -5.1036   1.3572   6.5149   7.8645   8.1590
     8.5485   9.3026  10.0986  10.9226  11.4666  12.7926  13.0701  13.6182
    13.8726  14.5424  15.2241  15.8553

     occupation numbers 
     1.0000   1.0000   1.0000   1.0000   0.0000   0.0000   0.0000   0.0000
     0.0000   0.0000   0.0000   0.0000   0.0000   0.0000   0.0000   0.0000
     0.0000   0.0000   0.0000   0.0000

          k = 0.1667 0.5132 0.0000 (  2714 PWs)   bands (ev):

   -18.9562 -12.5010  -9.5072  -4.8086   0.9886   7.0383   8.4390   8.4779
     9.1263   9.8062  10.6100  11.0990  11.1667  12.6051  12.6514  13.5504
    13.5604  14.2476  14.5307  15.5825

     occupation numbers 
     1.0000   1.0000   1.0000   1.0000   0.0000   0.0000   0.0000   0.0000
     0.0000   0.0000   0.0000   0.0000   0.0000   0.0000   0.0000   0.0000
     0.0000   0.0000   0.0000   0.0000

          k = 0.1667 0.5453 0.0000 (  2719 PWs)   bands (ev):

   -18.8437 -12.6769  -9.5703  -4.5989   0.7391   7.3903   8.7793   8.8788
     9.8701  10.2342  10.2600  11.3069  11.5964  11.7599  12.1271  13.2493
    13.3145  14.4187  14.5152  15.6067

     occupation numbers 
     1.0000   1.0000   1.0000   1.0000   0.0000   0.0000   0.0000   0.0000
     0.0000   0.0000   0.0000   0.0000   0.0000   0.0000   0.0000   0.0000
     0.0000   0.0000   0.0000   0.0000

          k = 0.1667 0.5774 0.0000 (  2710 PWs)   bands (ev):

   -18.8029 -12.7295  -9.5899  -4.5227   0.6532   7.5070   9.0438   9.0443
     9.8273  10.5071  10.7378  10.8225  11.2188  12.0792  12.2958  12.6489
    12.9916  14.7237  14.8308  15.5473

     occupation numbers 
     1.0000   1.0000   1.0000   1.0000   0.0000   0.0000   0.0000   0.0000
     0.0000   0.0000   0.0000   0.0000   0.0000   0.0000   0.0000   0.0000
     0.0000   0.0000   0.0000   0.0000

          k = 0.1944 0.3368 0.0000 (  2715 PWs)   bands (ev):

   -20.1199 -10.5021  -8.6829  -6.6409   3.2902   4.2385   5.6130   5.7050
     7.1125   7.4146   8.7615   9.7549   9.8124  11.4179  12.6076  14.6759
    14.7223  16.1866  18.1830  18.2409

     occupation numbers 
     1.0000   1.0000   1.0000   1.0000   0.0000   0.0000   0.0000   0.0000
     0.0000   0.0000   0.0000   0.0000   0.0000   0.0000   0.0000   0.0000
     0.0000   0.0000   0.0000   0.0000

          k = 0.1944 0.3689 0.0000 (  2721 PWs)   bands (ev):

   -19.8696 -10.9092  -9.0008  -6.2715   2.8676   4.7541   6.0741   6.2474
     7.5842   7.9272   8.9988  10.1308  10.2335  11.8123  12.4250  14.8778
    15.2256  16.0490  17.4729  17.5481

     occupation numbers 
     1.0000   1.0000   1.0000   1.0000   0.0000   0.0000   0.0000   0.0000
     0.0000   0.0000   0.0000   0.0000   0.0000   0.0000   0.0000   0.0000
     0.0000   0.0000   0.0000   0.0000

          k = 0.1944 0.4009 0.0000 (  2723 PWs)   bands (ev):

   -19.6172 -11.3081  -9.2745  -5.8909   2.4084   5.3076   6.5945   6.8372
     8.0967   8.4344   9.1692  10.4411  10.7419  12.2668  12.3162  15.2139
    15.3885  15.8174  16.5992  16.6340

     occupation numbers 
     1.0000   1.0000   1.0000   1.0000   0.0000   0.0000   0.0000   0.0000
     0.0000   0.0000   0.0000   0.0000   0.0000   0.0000   0.0000   0.0000
     0.0000   0.0000   0.0000   0.0000

          k = 0.1944 0.4330 0.0000 (  2724 PWs)   bands (ev):

   -19.3714 -11.6878  -9.5070  -5.5040   1.9482   5.8939   7.1529   7.4724
     8.6294   8.8020   9.4594  10.6263  11.2328  12.4361  12.7290  14.7253
    15.2535  15.5838  15.9635  16.2909

     occupation numbers 
     1.0000   1.0000   1.0000   1.0000   0.0000   0.0000   0.0000   0.0000
     0.0000   0.0000   0.0000   0.0000   0.0000   0.0000   0.0000   0.0000
     0.0000   0.0000   0.0000   0.0000

          k = 0.1944 0.4651 0.0000 (  2714 PWs)   bands (ev):

   -19.1449 -12.0243  -9.6839  -5.1315   1.5074   6.5014   7.7217   8.1444
     8.9560   9.1483   9.9936  10.7496  11.5319  12.7781  13.1264  14.1591
    14.4434  14.6971  15.7698  16.1762

     occupation numbers 
     1.0000   1.0000   1.0000   1.0000   0.0000   0.0000   0.0000   0.0000
     0.0000   0.0000   0.0000   0.0000   0.0000   0.0000   0.0000   0.0000
     0.0000   0.0000   0.0000   0.0000

          k = 0.1944 0.4972 0.0000 (  2708 PWs)   bands (ev):

   -18.9525 -12.3008  -9.8172  -4.8063   1.1216   7.1068   8.2444   8.7712
     9.1257   9.6163  10.5908  10.9800  11.4489  13.0483  13.2303  13.6155
    13.7501  14.4406  14.9953  15.5496

     occupation numbers 
     1.0000   1.0000   1.0000   1.0000   0.0000   0.0000   0.0000   0.0000
     0.0000   0.0000   0.0000   0.0000   0.0000   0.0000   0.0000   0.0000
     0.0000   0.0000   0.0000   0.0000

          k = 0.1944 0.5292 0.0000 (  2706 PWs)   bands (ev):

   -18.8126 -12.5050  -9.8994  -4.5569   0.8269   7.6452   8.6237   9.0239
     9.7391  10.0778  10.6963  11.3699  11.5829  12.3757  12.5172  13.6578
    13.7213  14.4415  14.5155  15.3648

     occupation numbers 
     1.0000   1.0000   1.0000   1.0000   0.0000   0.0000   0.0000   0.0000
     0.0000   0.0000   0.0000   0.0000   0.0000   0.0000   0.0000   0.0000
     0.0000   0.0000   0.0000   0.0000

          k = 0.1944 0.5613 0.0000 (  2704 PWs)   bands (ev):

   -18.7377 -12.6112  -9.9442  -4.4165   0.6681   7.9828   8.7992   9.2002
    10.2121  10.5881  10.6233  11.4521  11.4680  12.2346  12.2637  13.1042
    13.2227  14.7258  14.8972  15.5565

     occupation numbers 
     1.0000   1.0000   1.0000   1.0000   0.0000   0.0000   0.0000   0.0000
     0.0000   0.0000   0.0000   0.0000   0.0000   0.0000   0.0000   0.0000
     0.0000   0.0000   0.0000   0.0000

          k = 0.2222 0.3849 0.0000 (  2719 PWs)   bands (ev):

   -19.6246 -11.2364  -9.3457  -5.9009   2.4513   5.2939   6.5699   6.8149
     8.0705   8.4771   9.3772  10.4054  10.5175  12.2066  12.2774  15.2164
    15.5879  15.8784  16.8697  17.0341

     occupation numbers 
     1.0000   1.0000   1.0000   1.0000   0.0000   0.0000   0.0000   0.0000
     0.0000   0.0000   0.0000   0.0000   0.0000   0.0000   0.0000   0.0000
     0.0000   0.0000   0.0000   0.0000

          k = 0.2222 0.4170 0.0000 (  2725 PWs)   bands (ev):

   -19.3831 -11.5609  -9.6456  -5.5285   2.0218   5.8698   7.0994   7.4298
     8.5714   9.0269   9.6258  10.5424  10.9217  12.3810  12.6786  15.1086
    15.5461  16.1250  16.3016  16.3481

     occupation numbers 
     1.0000   1.0000   1.0000   1.0000   0.0000   0.0000   0.0000   0.0000
     0.0000   0.0000   0.0000   0.0000   0.0000   0.0000   0.0000   0.0000
     0.0000   0.0000   0.0000   0.0000

          k = 0.2222 0.4491 0.0000 (  2718 PWs)   bands (ev):

   -19.1540 -11.8607  -9.8907  -5.1544   1.6102   6.4776   7.6314   8.0901
     9.0498   9.4169   9.9464  10.6324  11.3563  12.7362  13.1722  14.4679
    15.0927  15.2881  16.0796  16.1273

     occupation numbers 
     1.0000   1.0000   1.0000   1.0000   0.0000   0.0000   0.0000   0.0000
     0.0000   0.0000   0.0000   0.0000   0.0000   0.0000   0.0000   0.0000
     0.0000   0.0000   0.0000   0.0000

          k = 0.2222 0.4811 0.0000 (  2710 PWs)   bands (ev):

   -18.9522 -12.1209 -10.0762  -4.8114   1.2269   7.1041   8.1007   8.7865
     9.4781   9.5368  10.5006  10.8708  11.6152  13.1912  13.5085  14.0359
    14.2330  14.4706  15.5731  15.6629

     occupation numbers 
     1.0000   1.0000   1.0000   1.0000   0.0000   0.0000   0.0000   0.0000
     0.0000   0.0000   0.0000   0.0000   0.0000   0.0000   0.0000   0.0000
     0.0000   0.0000   0.0000   0.0000

          k = 0.2222 0.5132 0.0000 (  2698 PWs)   bands (ev):

   -18.7907 -12.3274 -10.2043  -4.5208   0.9124   7.7239   8.4105   9.3904
     9.7055   9.9373  10.9529  11.3202  11.6756  13.0725  13.0797  13.8058
    13.9685  14.5658  14.8172  15.1250

     occupation numbers 
     1.0000   1.0000   1.0000   1.0000   0.0000   0.0000   0.0000   0.0000
     0.0000   0.0000   0.0000   0.0000   0.0000   0.0000   0.0000   0.0000
     0.0000   0.0000   0.0000   0.0000

          k = 0.2222 0.5453 0.0000 (  2699 PWs)   bands (ev):

   -18.6883 -12.4620 -10.2816  -4.3354   0.7015   8.2588   8.5415   9.4849
    10.3682  10.5139  10.8282  11.7755  12.0750  12.2741  12.4509  13.5965
    13.7150  14.6891  14.8373  15.1148

     occupation numbers 
     1.0000   1.0000   1.0000   1.0000   0.0000   0.0000   0.0000   0.0000
     0.0000   0.0000   0.0000   0.0000   0.0000   0.0000   0.0000   0.0000
     0.0000   0.0000   0.0000   0.0000

          k = 0.2222 0.5774 0.0000 (  2706 PWs)   bands (ev):

   -18.6528 -12.5106 -10.3100  -4.2733   0.6247   8.5020   8.5719   9.4846
    10.5348  10.9800  11.2444  11.3523  11.5680  12.5569  12.7064  13.1414
    13.2539  14.7342  15.2422  15.3339

     occupation numbers 
     1.0000   1.0000   1.0000   1.0000   0.0000   0.0000   0.0000   0.0000
     0.0000   0.0000   0.0000   0.0000   0.0000   0.0000   0.0000   0.0000
     0.0000   0.0000   0.0000   0.0000

          k = 0.2500 0.4330 0.0000 (  2713 PWs)   bands (ev):

   -19.1572 -11.7871  -9.9654  -5.1673   1.6413   6.4686   7.6004   8.0697
     9.0159   9.6176   9.9669  10.5914  11.2166  12.7183  13.1750  14.6728
    15.5391  15.6358  16.0539  16.1208

     occupation numbers 
     1.0000   1.0000   1.0000   1.0000   0.0000   0.0000   0.0000   0.0000
     0.0000   0.0000   0.0000   0.0000   0.0000   0.0000   0.0000   0.0000
     0.0000   0.0000   0.0000   0.0000

          k = 0.2500 0.4651 0.0000 (  2716 PWs)   bands (ev):

   -18.9529 -12.0026 -10.2392  -4.8193   1.2844   7.0922   8.0235   8.7537
     9.4057   9.9482  10.3995  10.8102  11.5876  13.2032  13.6599  14.1864
    14.8567  14.9658  15.4563  15.7455

     occupation numbers 
     1.0000   1.0000   1.0000   1.0000   0.0000   0.0000   0.0000   0.0000
     0.0000   0.0000   0.0000   0.0000   0.0000   0.0000   0.0000   0.0000
     0.0000   0.0000   0.0000   0.0000

          k = 0.2500 0.4972 0.0000 (  2712 PWs)   bands (ev):

   -18.7805 -12.1816 -10.4387  -4.5189   0.9725   7.7302   8.2662   9.4678
     9.8462  10.0094  10.9717  11.2655  11.8626  13.5727  13.5745  14.0893
    14.1674  14.4023  15.0800  15.2640

     occupation numbers 
     1.0000   1.0000   1.0000   1.0000   0.0000   0.0000   0.0000   0.0000
     0.0000   0.0000   0.0000   0.0000   0.0000   0.0000   0.0000   0.0000
     0.0000   0.0000   0.0000   0.0000

          k = 0.2500 0.5292 0.0000 (  2699 PWs)   bands (ev):

   -18.6560 -12.3110 -10.5657  -4.2807   0.7364   8.3386   8.3439   9.8817
    10.3198  10.4308  11.2128  11.8438  12.1575  12.9329  12.9862  13.8027
    14.2340  14.5747  14.7991  14.9268

     occupation numbers 
     1.0000   1.0000   1.0000   1.0000   0.0000   0.0000   0.0000   0.0000
     0.0000   0.0000   0.0000   0.0000   0.0000   0.0000   0.0000   0.0000
     0.0000   0.0000   0.0000   0.0000

          k = 0.2500 0.5613 0.0000 (  2695 PWs)   bands (ev):

   -18.5900 -12.3819 -10.6321  -4.1502   0.6073   8.3447   8.8172   9.7974
    10.9143  11.0845  11.2507  11.9835  12.0291  12.7218  12.7725  13.5704
    13.6407  14.3452  15.1448  15.1570

     occupation numbers 
     1.0000   1.0000   1.0000   1.0000   0.0000   0.0000   0.0000   0.0000
     0.0000   0.0000   0.0000   0.0000   0.0000   0.0000   0.0000   0.0000
     0.0000   0.0000   0.0000   0.0000

          k = 0.2778 0.4811 0.0000 (  2713 PWs)   bands (ev):

   -18.7766 -12.1177 -10.5338  -4.5107   0.9953   7.7274   8.2160   9.4576
     9.8151  10.2070  10.9387  11.2448  11.9288  13.7071  13.7123  14.2586
    14.5059  14.6183  14.8841  15.0970

     occupation numbers 
     1.0000   1.0000   1.0000   1.0000   0.0000   0.0000   0.0000   0.0000
     0.0000   0.0000   0.0000   0.0000   0.0000   0.0000   0.0000   0.0000
     0.0000   0.0000   0.0000   0.0000

          k = 0.2778 0.5132 0.0000 (  2704 PWs)   bands (ev):

   -18.6399 -12.2036 -10.7495  -4.2524   0.7594   8.2288   8.3584  10.1105
    10.3571  10.3838  11.4056  11.8356  12.2455  13.4872  13.6198  13.8653
    14.3283  14.4096  14.8087  14.8137

     occupation numbers 
     1.0000   1.0000   1.0000   1.0000   0.0000   0.0000   0.0000   0.0000
     0.0000   0.0000   0.0000   0.0000   0.0000   0.0000   0.0000   0.0000
     0.0000   0.0000   0.0000   0.0000

          k = 0.2778 0.5453 0.0000 (  2700 PWs)   bands (ev):

   -18.5528 -12.2565 -10.8840  -4.0858   0.6016   8.1867   8.9214  10.1544
    11.0171  11.0600  11.4584  12.3887  12.6553  12.8940  12.9642  13.7650
    14.1037  14.1346  14.6799  14.6804

     occupation numbers 
     1.0000   1.0000   1.0000   1.0000   0.0000   0.0000   0.0000   0.0000
     0.0000   0.0000   0.0000   0.0000   0.0000   0.0000   0.0000   0.0000
     0.0000   0.0000   0.0000   0.0000

          k = 0.2778 0.5774 0.0000 (  2699 PWs)   bands (ev):

   -18.5224 -12.2795 -10.9277  -4.0222   0.5461   8.1658   9.1980  10.0849
    11.2476  11.6005  11.8929  12.0025  12.1215  13.1650  13.2094  13.6604
    13.6644  13.9211  14.6088  14.6410

     occupation numbers 
     1.0000   1.0000   1.0000   1.0000   0.0000   0.0000   0.0000   0.0000
     0.0000   0.0000   0.0000   0.0000   0.0000   0.0000   0.0000   0.0000
     0.0000   0.0000   0.0000   0.0000

          k = 0.3056 0.5292 0.0000 (  2699 PWs)   bands (ev):

   -18.5400 -12.2004 -10.9812  -4.0597   0.6020   8.1306   8.9414  10.3192
    11.0193  11.0455  11.5839  12.4668  12.6964  13.3791  13.5006  13.5760
    13.8851  13.9166  14.4014  14.8464

     occupation numbers 
     1.0000   1.0000   1.0000   1.0000   0.0000   0.0000   0.0000   0.0000
     0.0000   0.0000   0.0000   0.0000   0.0000   0.0000   0.0000   0.0000
     0.0000   0.0000   0.0000   0.0000

          k = 0.3056 0.5613 0.0000 (  2703 PWs)   bands (ev):

   -18.4877 -12.1975 -11.1098  -3.9572   0.5164   8.0647   9.3446  10.3844
    11.3472  11.7429  11.8986  12.6164  12.7248  13.2233  13.2703  13.5439
    13.7135  13.9263  14.0710  14.3811

     occupation numbers 
     1.0000   1.0000   1.0000   1.0000   0.0000   0.0000   0.0000   0.0000
     0.0000   0.0000   0.0000   0.0000   0.0000   0.0000   0.0000   0.0000
     0.0000   0.0000   0.0000   0.0000

          k = 0.3333 0.5774 0.0000 (  2709 PWs)   bands (ev):

   -18.4664 -12.1698 -11.2001  -3.9154   0.4863   8.0199   9.4904  10.5613
    11.2264  12.2211  12.5880  12.6343  12.6927  12.7851  13.0535  13.6701
    13.8789  13.9158  13.9998  14.1839

     occupation numbers 
     1.0000   1.0000   1.0000   1.0000   0.0000   0.0000   0.0000   0.0000
     0.0000   0.0000   0.0000   0.0000   0.0000   0.0000   0.0000   0.0000
     0.0000   0.0000   0.0000   0.0000

     highest occupied, lowest unoccupied level (ev):    -3.9154    0.4863

     Writing output data file run_output/hBN_2D.save/

     init_run     :      0.04s CPU      0.09s WALL (       1 calls)
     electrons    :      2.57s CPU      2.78s WALL (       1 calls)

     Called by init_run:
     wfcinit      :      0.00s CPU      0.01s WALL (       1 calls)
     wfcinit:atom :      0.00s CPU      0.00s WALL (      19 calls)
     wfcinit:wfcr :      0.20s CPU      0.32s WALL (      19 calls)
     potinit      :      0.00s CPU      0.02s WALL (       1 calls)
     hinit0       :      0.01s CPU      0.02s WALL (       1 calls)

     Called by electrons:
     c_bands      :      2.57s CPU      2.75s WALL (       1 calls)
     v_of_rho     :      0.00s CPU      0.00s WALL (       1 calls)
     v_h          :      0.00s CPU      0.00s WALL (       1 calls)
     v_xc         :      0.00s CPU      0.00s WALL (       1 calls)

     Called by c_bands:
     init_us_2    :      0.00s CPU      0.00s WALL (      19 calls)
     cegterg      :      2.02s CPU      2.08s WALL (      19 calls)

     Called by sum_band:

     Called by *egterg:
     cdiaghg      :      0.45s CPU      0.56s WALL (     289 calls)
     cegterg:over :      0.10s CPU      0.10s WALL (     270 calls)
     cegterg:upda :      0.05s CPU      0.05s WALL (     270 calls)
     cegterg:last :      0.04s CPU      0.04s WALL (      57 calls)
     cdiaghg:chol :      0.04s CPU      0.07s WALL (     289 calls)
     cdiaghg:inve :      0.01s CPU      0.01s WALL (     289 calls)
     cdiaghg:para :      0.05s CPU      0.06s WALL (     578 calls)
     h_psi        :      1.54s CPU      1.60s WALL (     308 calls)
     g_psi        :      0.02s CPU      0.02s WALL (     270 calls)

     Called by h_psi:
     h_psi:calbec :      0.02s CPU      0.02s WALL (     308 calls)
     vloc_psi     :      1.51s CPU      1.55s WALL (     308 calls)
     add_vuspsi   :      0.00s CPU      0.01s WALL (     308 calls)

     General routines
     calbec       :      0.01s CPU      0.02s WALL (     308 calls)
     fft          :      0.00s CPU      0.01s WALL (       3 calls)
     fftw         :      1.26s CPU      1.30s WALL (    7102 calls)
     davcio       :      0.00s CPU      0.00s WALL (      38 calls)

     Parallel routines
     fft_scatt_xy :      0.21s CPU      0.21s WALL (    7105 calls)
     fft_scatt_yz :      0.31s CPU      0.32s WALL (    7105 calls)

     PWSCF        :      2.98s CPU      5.81s WALL


   This run was terminated on:  15:59: 1  13Oct2021            

=------------------------------------------------------------------------------=
   JOB DONE.
=------------------------------------------------------------------------------=
