
     Program PWSCF v.6.7MaX starts on 20Jul2022 at 15:34:49 

     This program is part of the open-source Quantum ESPRESSO suite
     for quantum simulation of materials; please cite
         "P. Giannozzi et al., J. Phys.:Condens. Matter 21 395502 (2009);
         "P. Giannozzi et al., J. Phys.:Condens. Matter 29 465901 (2017);
          URL http://www.quantum-espresso.org", 
     in publications or presentations arising from this work. More details at
     http://www.quantum-espresso.org/quote

     Parallel version (MPI), running on    84 processors

     MPI processes distributed on     3 nodes
     K-points division:     npool     =       7
     R & G space division:  proc/nbgrp/npool/nimage =      12
     Waiting for input...
     Reading input from standard input
     Message from routine read_cards :
     DEPRECATED: no units specified in ATOMIC_POSITIONS card
     Message from routine read_cards :
     ATOMIC_POSITIONS: units set to alat

     Current dimensions of program PWSCF are:
     Max number of different atomic species (ntypx) = 10
     Max number of k-points (npk) =  40000
     Max angular momentum in pseudopotentials (lmaxx) =  3

     Atomic positions and unit cell read from directory:
     run_output/Silicon.save/


     Subspace diagonalization in iterative solution of the eigenvalue problem:
     one sub-group per band group will be used
     scalapack distributed-memory algorithm (size of sub-group:  3*  3 procs)


     Parallelization info
     --------------------
     sticks:   dense  smooth     PW     G-vecs:    dense   smooth      PW
     Min          17      17      7                  173      173      38
     Max          18      18      8                  175      175      39
     Sum         211     211     85                 2085     2085     459



     bravais-lattice index     =            2
     lattice parameter (alat)  =      10.1830  a.u.
     unit-cell volume          =     263.9777 (a.u.)^3
     number of atoms/cell      =            2
     number of atomic types    =            1
     number of electrons       =         8.00
     number of Kohn-Sham states=           10
     kinetic-energy cutoff     =      15.0000  Ry
     charge density cutoff     =      60.0000  Ry
     Exchange-correlation=  SLA  PZ   NOGX NOGC
                           (   1   1   0   0   0   0   0)

     celldm(1)=  10.183000  celldm(2)=   0.000000  celldm(3)=   0.000000
     celldm(4)=   0.000000  celldm(5)=   0.000000  celldm(6)=   0.000000

     crystal axes: (cart. coord. in units of alat)
               a(1) = (  -0.500000   0.000000   0.500000 )  
               a(2) = (   0.000000   0.500000   0.500000 )  
               a(3) = (  -0.500000   0.500000   0.000000 )  

     reciprocal axes: (cart. coord. in units 2 pi/alat)
               b(1) = ( -1.000000 -1.000000  1.000000 )  
               b(2) = (  1.000000  1.000000  1.000000 )  
               b(3) = ( -1.000000  1.000000 -1.000000 )  


     PseudoPot. # 1 for Si read from file:
     PPs/Si.vbc.UPF
     MD5 check sum: 7974b67c806a44bbea7c2da40a3c413a
     Pseudo is Norm-conserving, Zval =  4.0
     Generated by new atomic code, or converted to UPF format
     Using radial grid of  431 points,  2 beta functions with: 
                l(1) =   0
                l(2) =   1

     atomic species   valence    mass     pseudopotential
        Si             4.00    28.08600     Si( 1.00)

     24 Sym. Ops. (no inversion) found


                                    s                        frac. trans.

      isym =  1     identity                                     

 cryst.   s( 1) = (     1          0          0      )
                  (     0          1          0      )
                  (     0          0          1      )

 cart.    s( 1) = (  1.0000000  0.0000000  0.0000000 )
                  (  0.0000000  1.0000000  0.0000000 )
                  (  0.0000000  0.0000000  1.0000000 )


      isym =  2     180 deg rotation - cart. axis [0,0,1]        

 cryst.   s( 2) = (     0          1         -1      )
                  (     1          0         -1      )
                  (     0          0         -1      )

 cart.    s( 2) = ( -1.0000000  0.0000000  0.0000000 )
                  (  0.0000000 -1.0000000  0.0000000 )
                  (  0.0000000  0.0000000  1.0000000 )


      isym =  3     180 deg rotation - cart. axis [0,1,0]        

 cryst.   s( 3) = (    -1          0          0      )
                  (    -1          0          1      )
                  (    -1          1          0      )

 cart.    s( 3) = ( -1.0000000  0.0000000  0.0000000 )
                  (  0.0000000  1.0000000  0.0000000 )
                  (  0.0000000  0.0000000 -1.0000000 )


      isym =  4     180 deg rotation - cart. axis [1,0,0]        

 cryst.   s( 4) = (     0         -1          1      )
                  (     0         -1          0      )
                  (     1         -1          0      )

 cart.    s( 4) = (  1.0000000  0.0000000  0.0000000 )
                  (  0.0000000 -1.0000000  0.0000000 )
                  (  0.0000000  0.0000000 -1.0000000 )


      isym =  5     120 deg rotation - cart. axis [-1,-1,-1]     

 cryst.   s( 5) = (    -1          0          1      )
                  (    -1          1          0      )
                  (    -1          0          0      )

 cart.    s( 5) = (  0.0000000  1.0000000  0.0000000 )
                  (  0.0000000  0.0000000  1.0000000 )
                  (  1.0000000  0.0000000  0.0000000 )


      isym =  6     120 deg rotation - cart. axis [-1,1,1]       

 cryst.   s( 6) = (     0          1          0      )
                  (     0          0          1      )
                  (     1          0          0      )

 cart.    s( 6) = (  0.0000000 -1.0000000  0.0000000 )
                  (  0.0000000  0.0000000  1.0000000 )
                  ( -1.0000000  0.0000000  0.0000000 )


      isym =  7     120 deg rotation - cart. axis [1,1,-1]       

 cryst.   s( 7) = (     1          0         -1      )
                  (     0          0         -1      )
                  (     0          1         -1      )

 cart.    s( 7) = (  0.0000000  1.0000000  0.0000000 )
                  (  0.0000000  0.0000000 -1.0000000 )
                  ( -1.0000000  0.0000000  0.0000000 )


      isym =  8     120 deg rotation - cart. axis [1,-1,1]       

 cryst.   s( 8) = (     0         -1          0      )
                  (     1         -1          0      )
                  (     0         -1          1      )

 cart.    s( 8) = (  0.0000000 -1.0000000  0.0000000 )
                  (  0.0000000  0.0000000 -1.0000000 )
                  (  1.0000000  0.0000000  0.0000000 )


      isym =  9     120 deg rotation - cart. axis [1,1,1]        

 cryst.   s( 9) = (     0          0         -1      )
                  (     0          1         -1      )
                  (     1          0         -1      )

 cart.    s( 9) = (  0.0000000  0.0000000  1.0000000 )
                  (  1.0000000  0.0000000  0.0000000 )
                  (  0.0000000  1.0000000  0.0000000 )


      isym = 10     120 deg rotation - cart. axis [-1,1,-1]      

 cryst.   s(10) = (    -1          1          0      )
                  (    -1          0          0      )
                  (    -1          0          1      )

 cart.    s(10) = (  0.0000000  0.0000000  1.0000000 )
                  ( -1.0000000  0.0000000  0.0000000 )
                  (  0.0000000 -1.0000000  0.0000000 )


      isym = 11     120 deg rotation - cart. axis [1,-1,-1]      

 cryst.   s(11) = (     0          0          1      )
                  (     1          0          0      )
                  (     0          1          0      )

 cart.    s(11) = (  0.0000000  0.0000000 -1.0000000 )
                  ( -1.0000000  0.0000000  0.0000000 )
                  (  0.0000000  1.0000000  0.0000000 )


      isym = 12     120 deg rotation - cart. axis [-1,-1,1]      

 cryst.   s(12) = (     1         -1          0      )
                  (     0         -1          1      )
                  (     0         -1          0      )

 cart.    s(12) = (  0.0000000  0.0000000 -1.0000000 )
                  (  1.0000000  0.0000000  0.0000000 )
                  (  0.0000000 -1.0000000  0.0000000 )


      isym = 13     inv. 180 deg rotation - cart. axis [1,1,0]   

 cryst.   s(13) = (     0          1          0      )
                  (     1          0          0      )
                  (     0          0          1      )

 cart.    s(13) = (  0.0000000 -1.0000000  0.0000000 )
                  ( -1.0000000  0.0000000  0.0000000 )
                  (  0.0000000  0.0000000  1.0000000 )


      isym = 14     inv. 180 deg rotation - cart. axis [1,-1,0]  

 cryst.   s(14) = (     1          0         -1      )
                  (     0          1         -1      )
                  (     0          0         -1      )

 cart.    s(14) = (  0.0000000  1.0000000  0.0000000 )
                  (  1.0000000  0.0000000  0.0000000 )
                  (  0.0000000  0.0000000  1.0000000 )


      isym = 15     inv.  90 deg rotation - cart. axis [0,0,-1]  

 cryst.   s(15) = (     0         -1          0      )
                  (     0         -1          1      )
                  (     1         -1          0      )

 cart.    s(15) = (  0.0000000 -1.0000000  0.0000000 )
                  (  1.0000000  0.0000000  0.0000000 )
                  (  0.0000000  0.0000000 -1.0000000 )


      isym = 16     inv.  90 deg rotation - cart. axis [0,0,1]   

 cryst.   s(16) = (    -1          0          1      )
                  (    -1          0          0      )
                  (    -1          1          0      )

 cart.    s(16) = (  0.0000000  1.0000000  0.0000000 )
                  ( -1.0000000  0.0000000  0.0000000 )
                  (  0.0000000  0.0000000 -1.0000000 )


      isym = 17     inv. 180 deg rotation - cart. axis [1,0,1]   

 cryst.   s(17) = (     1          0          0      )
                  (     0          0          1      )
                  (     0          1          0      )

 cart.    s(17) = (  0.0000000  0.0000000 -1.0000000 )
                  (  0.0000000  1.0000000  0.0000000 )
                  ( -1.0000000  0.0000000  0.0000000 )


      isym = 18     inv. 180 deg rotation - cart. axis [-1,0,1]  

 cryst.   s(18) = (    -1          0          0      )
                  (    -1          1          0      )
                  (    -1          0          1      )

 cart.    s(18) = (  0.0000000  0.0000000  1.0000000 )
                  (  0.0000000  1.0000000  0.0000000 )
                  (  1.0000000  0.0000000  0.0000000 )


      isym = 19     inv.  90 deg rotation - cart. axis [0,1,0]   

 cryst.   s(19) = (     0         -1          1      )
                  (     1         -1          0      )
                  (     0         -1          0      )

 cart.    s(19) = (  0.0000000  0.0000000 -1.0000000 )
                  (  0.0000000 -1.0000000  0.0000000 )
                  (  1.0000000  0.0000000  0.0000000 )


      isym = 20     inv.  90 deg rotation - cart. axis [0,-1,0]  

 cryst.   s(20) = (     0          1         -1      )
                  (     0          0         -1      )
                  (     1          0         -1      )

 cart.    s(20) = (  0.0000000  0.0000000  1.0000000 )
                  (  0.0000000 -1.0000000  0.0000000 )
                  ( -1.0000000  0.0000000  0.0000000 )


      isym = 21     inv. 180 deg rotation - cart. axis [0,1,1]   

 cryst.   s(21) = (     1         -1          0      )
                  (     0         -1          0      )
                  (     0         -1          1      )

 cart.    s(21) = (  1.0000000  0.0000000  0.0000000 )
                  (  0.0000000  0.0000000 -1.0000000 )
                  (  0.0000000 -1.0000000  0.0000000 )


      isym = 22     inv. 180 deg rotation - cart. axis [0,1,-1]  

 cryst.   s(22) = (     0          0          1      )
                  (     0          1          0      )
                  (     1          0          0      )

 cart.    s(22) = (  1.0000000  0.0000000  0.0000000 )
                  (  0.0000000  0.0000000  1.0000000 )
                  (  0.0000000  1.0000000  0.0000000 )


      isym = 23     inv.  90 deg rotation - cart. axis [-1,0,0]  

 cryst.   s(23) = (     0          0         -1      )
                  (     1          0         -1      )
                  (     0          1         -1      )

 cart.    s(23) = ( -1.0000000  0.0000000  0.0000000 )
                  (  0.0000000  0.0000000 -1.0000000 )
                  (  0.0000000  1.0000000  0.0000000 )


      isym = 24     inv.  90 deg rotation - cart. axis [1,0,0]   

 cryst.   s(24) = (    -1          1          0      )
                  (    -1          0          1      )
                  (    -1          0          0      )

 cart.    s(24) = ( -1.0000000  0.0000000  0.0000000 )
                  (  0.0000000  0.0000000  1.0000000 )
                  (  0.0000000 -1.0000000  0.0000000 )


     point group T_d (-43m) 
     there are  5 classes
     the character table:

       E     8C3   3C2   6S4   6s_d 
A_1    1.00  1.00  1.00  1.00  1.00
A_2    1.00  1.00  1.00 -1.00 -1.00
E      2.00 -1.00  2.00  0.00  0.00
T_1    3.00  0.00 -1.00  1.00 -1.00
T_2    3.00  0.00 -1.00 -1.00  1.00

     the symmetry operations in each class and the name of the first element:

     E        1
          identity                                               
     8C3      5    7    8    6   12    9   10   11
          120 deg rotation - cart. axis [-1,-1,-1]               
     3C2      2    3    4
          180 deg rotation - cart. axis [0,0,1]                  
     6S4     15   16   20   19   23   24
          inv.  90 deg rotation - cart. axis [0,0,-1]            
     6s_d    13   14   17   18   21   22
          inv. 180 deg rotation - cart. axis [1,1,0]             

   Cartesian axes

     site n.     atom                  positions (alat units)
         1           Si  tau(   1) = (   0.0000000   0.0000000   0.0000000  )
         2           Si  tau(   2) = (   0.2500000   0.2500000   0.2500000  )

   Crystallographic axes

     site n.     atom                  positions (cryst. coord.)
         1           Si  tau(   1) = (  0.0000000  0.0000000  0.0000000  )
         2           Si  tau(   2) = ( -0.2500000  0.7500000 -0.2500000  )

     number of k points=   413
                       cart. coord. in units 2pi/alat
        k(    1) = (   0.0000000   0.0000000   0.0000000), wk =   0.0001447
        k(    2) = (  -0.0416667   0.0416667  -0.0416667), wk =   0.0011574
        k(    3) = (  -0.0833333   0.0833333  -0.0833333), wk =   0.0011574
        k(    4) = (  -0.1250000   0.1250000  -0.1250000), wk =   0.0011574
        k(    5) = (  -0.1666667   0.1666667  -0.1666667), wk =   0.0011574
        k(    6) = (  -0.2083333   0.2083333  -0.2083333), wk =   0.0011574
        k(    7) = (  -0.2500000   0.2500000  -0.2500000), wk =   0.0011574
        k(    8) = (  -0.2916667   0.2916667  -0.2916667), wk =   0.0011574
        k(    9) = (  -0.3333333   0.3333333  -0.3333333), wk =   0.0011574
        k(   10) = (  -0.3750000   0.3750000  -0.3750000), wk =   0.0011574
        k(   11) = (  -0.4166667   0.4166667  -0.4166667), wk =   0.0011574
        k(   12) = (  -0.4583333   0.4583333  -0.4583333), wk =   0.0011574
        k(   13) = (   0.5000000  -0.5000000   0.5000000), wk =   0.0005787
        k(   14) = (   0.0000000   0.0833333   0.0000000), wk =   0.0008681
        k(   15) = (  -0.0416667   0.1250000  -0.0416667), wk =   0.0034722
        k(   16) = (  -0.0833333   0.1666667  -0.0833333), wk =   0.0034722
        k(   17) = (  -0.1250000   0.2083333  -0.1250000), wk =   0.0034722
        k(   18) = (  -0.1666667   0.2500000  -0.1666667), wk =   0.0034722
        k(   19) = (  -0.2083333   0.2916667  -0.2083333), wk =   0.0034722
        k(   20) = (  -0.2500000   0.3333333  -0.2500000), wk =   0.0034722
        k(   21) = (  -0.2916667   0.3750000  -0.2916667), wk =   0.0034722
        k(   22) = (  -0.3333333   0.4166667  -0.3333333), wk =   0.0034722
        k(   23) = (  -0.3750000   0.4583333  -0.3750000), wk =   0.0034722
        k(   24) = (  -0.4166667   0.5000000  -0.4166667), wk =   0.0034722
        k(   25) = (   0.5416667  -0.4583333   0.5416667), wk =   0.0034722
        k(   26) = (   0.5000000  -0.4166667   0.5000000), wk =   0.0034722
        k(   27) = (   0.4583333  -0.3750000   0.4583333), wk =   0.0034722
        k(   28) = (   0.4166667  -0.3333333   0.4166667), wk =   0.0034722
        k(   29) = (   0.3750000  -0.2916667   0.3750000), wk =   0.0034722
        k(   30) = (   0.3333333  -0.2500000   0.3333333), wk =   0.0034722
        k(   31) = (   0.2916667  -0.2083333   0.2916667), wk =   0.0034722
        k(   32) = (   0.2500000  -0.1666667   0.2500000), wk =   0.0034722
        k(   33) = (   0.2083333  -0.1250000   0.2083333), wk =   0.0034722
        k(   34) = (   0.1666667  -0.0833333   0.1666667), wk =   0.0034722
        k(   35) = (   0.1250000  -0.0416667   0.1250000), wk =   0.0034722
        k(   36) = (   0.0833333   0.0000000   0.0833333), wk =   0.0017361
        k(   37) = (   0.0000000   0.1666667   0.0000000), wk =   0.0008681
        k(   38) = (  -0.0416667   0.2083333  -0.0416667), wk =   0.0034722
        k(   39) = (  -0.0833333   0.2500000  -0.0833333), wk =   0.0034722
        k(   40) = (  -0.1250000   0.2916667  -0.1250000), wk =   0.0034722
        k(   41) = (  -0.1666667   0.3333333  -0.1666667), wk =   0.0034722
        k(   42) = (  -0.2083333   0.3750000  -0.2083333), wk =   0.0034722
        k(   43) = (  -0.2500000   0.4166667  -0.2500000), wk =   0.0034722
        k(   44) = (  -0.2916667   0.4583333  -0.2916667), wk =   0.0034722
        k(   45) = (  -0.3333333   0.5000000  -0.3333333), wk =   0.0034722
        k(   46) = (  -0.3750000   0.5416667  -0.3750000), wk =   0.0034722
        k(   47) = (   0.5833333  -0.4166667   0.5833333), wk =   0.0034722
        k(   48) = (   0.5416667  -0.3750000   0.5416667), wk =   0.0034722
        k(   49) = (   0.5000000  -0.3333333   0.5000000), wk =   0.0034722
        k(   50) = (   0.4583333  -0.2916667   0.4583333), wk =   0.0034722
        k(   51) = (   0.4166667  -0.2500000   0.4166667), wk =   0.0034722
        k(   52) = (   0.3750000  -0.2083333   0.3750000), wk =   0.0034722
        k(   53) = (   0.3333333  -0.1666667   0.3333333), wk =   0.0034722
        k(   54) = (   0.2916667  -0.1250000   0.2916667), wk =   0.0034722
        k(   55) = (   0.2500000  -0.0833333   0.2500000), wk =   0.0034722
        k(   56) = (   0.2083333  -0.0416667   0.2083333), wk =   0.0034722
        k(   57) = (   0.1666667  -0.0000000   0.1666667), wk =   0.0017361
        k(   58) = (   0.0000000   0.2500000   0.0000000), wk =   0.0008681
        k(   59) = (  -0.0416667   0.2916667  -0.0416667), wk =   0.0034722
        k(   60) = (  -0.0833333   0.3333333  -0.0833333), wk =   0.0034722
        k(   61) = (  -0.1250000   0.3750000  -0.1250000), wk =   0.0034722
        k(   62) = (  -0.1666667   0.4166667  -0.1666667), wk =   0.0034722
        k(   63) = (  -0.2083333   0.4583333  -0.2083333), wk =   0.0034722
        k(   64) = (  -0.2500000   0.5000000  -0.2500000), wk =   0.0034722
        k(   65) = (  -0.2916667   0.5416667  -0.2916667), wk =   0.0034722
        k(   66) = (  -0.3333333   0.5833333  -0.3333333), wk =   0.0034722
        k(   67) = (   0.6250000  -0.3750000   0.6250000), wk =   0.0034722
        k(   68) = (   0.5833333  -0.3333333   0.5833333), wk =   0.0034722
        k(   69) = (   0.5416667  -0.2916667   0.5416667), wk =   0.0034722
        k(   70) = (   0.5000000  -0.2500000   0.5000000), wk =   0.0034722
        k(   71) = (   0.4583333  -0.2083333   0.4583333), wk =   0.0034722
        k(   72) = (   0.4166667  -0.1666667   0.4166667), wk =   0.0034722
        k(   73) = (   0.3750000  -0.1250000   0.3750000), wk =   0.0034722
        k(   74) = (   0.3333333  -0.0833333   0.3333333), wk =   0.0034722
        k(   75) = (   0.2916667  -0.0416667   0.2916667), wk =   0.0034722
        k(   76) = (   0.2500000   0.0000000   0.2500000), wk =   0.0017361
        k(   77) = (   0.0000000   0.3333333   0.0000000), wk =   0.0008681
        k(   78) = (  -0.0416667   0.3750000  -0.0416667), wk =   0.0034722
        k(   79) = (  -0.0833333   0.4166667  -0.0833333), wk =   0.0034722
        k(   80) = (  -0.1250000   0.4583333  -0.1250000), wk =   0.0034722
        k(   81) = (  -0.1666667   0.5000000  -0.1666667), wk =   0.0034722
        k(   82) = (  -0.2083333   0.5416667  -0.2083333), wk =   0.0034722
        k(   83) = (  -0.2500000   0.5833333  -0.2500000), wk =   0.0034722
        k(   84) = (  -0.2916667   0.6250000  -0.2916667), wk =   0.0034722
        k(   85) = (   0.6666667  -0.3333333   0.6666667), wk =   0.0034722
        k(   86) = (   0.6250000  -0.2916667   0.6250000), wk =   0.0034722
        k(   87) = (   0.5833333  -0.2500000   0.5833333), wk =   0.0034722
        k(   88) = (   0.5416667  -0.2083333   0.5416667), wk =   0.0034722
        k(   89) = (   0.5000000  -0.1666667   0.5000000), wk =   0.0034722
        k(   90) = (   0.4583333  -0.1250000   0.4583333), wk =   0.0034722
        k(   91) = (   0.4166667  -0.0833333   0.4166667), wk =   0.0034722
        k(   92) = (   0.3750000  -0.0416667   0.3750000), wk =   0.0034722
        k(   93) = (   0.3333333   0.0000000   0.3333333), wk =   0.0017361
        k(   94) = (   0.0000000   0.4166667   0.0000000), wk =   0.0008681
        k(   95) = (  -0.0416667   0.4583333  -0.0416667), wk =   0.0034722
        k(   96) = (  -0.0833333   0.5000000  -0.0833333), wk =   0.0034722
        k(   97) = (  -0.1250000   0.5416667  -0.1250000), wk =   0.0034722
        k(   98) = (  -0.1666667   0.5833333  -0.1666667), wk =   0.0034722
        k(   99) = (  -0.2083333   0.6250000  -0.2083333), wk =   0.0034722
        k(  100) = (  -0.2500000   0.6666667  -0.2500000), wk =   0.0034722
        k(  101) = (   0.7083333  -0.2916667   0.7083333), wk =   0.0034722
        k(  102) = (   0.6666667  -0.2500000   0.6666667), wk =   0.0034722
        k(  103) = (   0.6250000  -0.2083333   0.6250000), wk =   0.0034722
        k(  104) = (   0.5833333  -0.1666667   0.5833333), wk =   0.0034722
        k(  105) = (   0.5416667  -0.1250000   0.5416667), wk =   0.0034722
        k(  106) = (   0.5000000  -0.0833333   0.5000000), wk =   0.0034722
        k(  107) = (   0.4583333  -0.0416667   0.4583333), wk =   0.0034722
        k(  108) = (   0.4166667  -0.0000000   0.4166667), wk =   0.0017361
        k(  109) = (   0.0000000   0.5000000   0.0000000), wk =   0.0008681
        k(  110) = (  -0.0416667   0.5416667  -0.0416667), wk =   0.0034722
        k(  111) = (  -0.0833333   0.5833333  -0.0833333), wk =   0.0034722
        k(  112) = (  -0.1250000   0.6250000  -0.1250000), wk =   0.0034722
        k(  113) = (  -0.1666667   0.6666667  -0.1666667), wk =   0.0034722
        k(  114) = (  -0.2083333   0.7083333  -0.2083333), wk =   0.0034722
        k(  115) = (   0.7500000  -0.2500000   0.7500000), wk =   0.0034722
        k(  116) = (   0.7083333  -0.2083333   0.7083333), wk =   0.0034722
        k(  117) = (   0.6666667  -0.1666667   0.6666667), wk =   0.0034722
        k(  118) = (   0.6250000  -0.1250000   0.6250000), wk =   0.0034722
        k(  119) = (   0.5833333  -0.0833333   0.5833333), wk =   0.0034722
        k(  120) = (   0.5416667  -0.0416667   0.5416667), wk =   0.0034722
        k(  121) = (   0.5000000   0.0000000   0.5000000), wk =   0.0017361
        k(  122) = (   0.0000000   0.5833333   0.0000000), wk =   0.0008681
        k(  123) = (  -0.0416667   0.6250000  -0.0416667), wk =   0.0034722
        k(  124) = (  -0.0833333   0.6666667  -0.0833333), wk =   0.0034722
        k(  125) = (  -0.1250000   0.7083333  -0.1250000), wk =   0.0034722
        k(  126) = (  -0.1666667   0.7500000  -0.1666667), wk =   0.0034722
        k(  127) = (   0.7916667  -0.2083333   0.7916667), wk =   0.0034722
        k(  128) = (   0.7500000  -0.1666667   0.7500000), wk =   0.0034722
        k(  129) = (   0.7083333  -0.1250000   0.7083333), wk =   0.0034722
        k(  130) = (   0.6666667  -0.0833333   0.6666667), wk =   0.0034722
        k(  131) = (   0.6250000  -0.0416667   0.6250000), wk =   0.0034722
        k(  132) = (   0.5833333   0.0000000   0.5833333), wk =   0.0017361
        k(  133) = (   0.0000000   0.6666667   0.0000000), wk =   0.0008681
        k(  134) = (  -0.0416667   0.7083333  -0.0416667), wk =   0.0034722
        k(  135) = (  -0.0833333   0.7500000  -0.0833333), wk =   0.0034722
        k(  136) = (  -0.1250000   0.7916667  -0.1250000), wk =   0.0034722
        k(  137) = (   0.8333333  -0.1666667   0.8333333), wk =   0.0034722
        k(  138) = (   0.7916667  -0.1250000   0.7916667), wk =   0.0034722
        k(  139) = (   0.7500000  -0.0833333   0.7500000), wk =   0.0034722
        k(  140) = (   0.7083333  -0.0416667   0.7083333), wk =   0.0034722
        k(  141) = (   0.6666667  -0.0000000   0.6666667), wk =   0.0017361
        k(  142) = (   0.0000000   0.7500000   0.0000000), wk =   0.0008681
        k(  143) = (  -0.0416667   0.7916667  -0.0416667), wk =   0.0034722
        k(  144) = (  -0.0833333   0.8333333  -0.0833333), wk =   0.0034722
        k(  145) = (   0.8750000  -0.1250000   0.8750000), wk =   0.0034722
        k(  146) = (   0.8333333  -0.0833333   0.8333333), wk =   0.0034722
        k(  147) = (   0.7916667  -0.0416667   0.7916667), wk =   0.0034722
        k(  148) = (   0.7500000   0.0000000   0.7500000), wk =   0.0017361
        k(  149) = (   0.0000000   0.8333333   0.0000000), wk =   0.0008681
        k(  150) = (  -0.0416667   0.8750000  -0.0416667), wk =   0.0034722
        k(  151) = (   0.9166667  -0.0833333   0.9166667), wk =   0.0034722
        k(  152) = (   0.8750000  -0.0416667   0.8750000), wk =   0.0034722
        k(  153) = (   0.8333333   0.0000000   0.8333333), wk =   0.0017361
        k(  154) = (   0.0000000   0.9166667   0.0000000), wk =   0.0008681
        k(  155) = (   0.9583333  -0.0416667   0.9583333), wk =   0.0034722
        k(  156) = (   0.9166667  -0.0000000   0.9166667), wk =   0.0017361
        k(  157) = (   0.0000000  -1.0000000   0.0000000), wk =   0.0004340
        k(  158) = (  -0.0833333   0.1666667   0.0000000), wk =   0.0034722
        k(  159) = (  -0.1250000   0.2083333  -0.0416667), wk =   0.0069444
        k(  160) = (  -0.1666667   0.2500000  -0.0833333), wk =   0.0069444
        k(  161) = (  -0.2083333   0.2916667  -0.1250000), wk =   0.0069444
        k(  162) = (  -0.2500000   0.3333333  -0.1666667), wk =   0.0069444
        k(  163) = (  -0.2916667   0.3750000  -0.2083333), wk =   0.0069444
        k(  164) = (  -0.3333333   0.4166667  -0.2500000), wk =   0.0069444
        k(  165) = (  -0.3750000   0.4583333  -0.2916667), wk =   0.0069444
        k(  166) = (  -0.4166667   0.5000000  -0.3333333), wk =   0.0069444
        k(  167) = (   0.5416667  -0.4583333   0.6250000), wk =   0.0069444
        k(  168) = (   0.5000000  -0.4166667   0.5833333), wk =   0.0034722
        k(  169) = (  -0.0833333   0.2500000   0.0000000), wk =   0.0034722
        k(  170) = (  -0.1250000   0.2916667  -0.0416667), wk =   0.0069444
        k(  171) = (  -0.1666667   0.3333333  -0.0833333), wk =   0.0069444
        k(  172) = (  -0.2083333   0.3750000  -0.1250000), wk =   0.0069444
        k(  173) = (  -0.2500000   0.4166667  -0.1666667), wk =   0.0069444
        k(  174) = (  -0.2916667   0.4583333  -0.2083333), wk =   0.0069444
        k(  175) = (  -0.3333333   0.5000000  -0.2500000), wk =   0.0069444
        k(  176) = (  -0.3750000   0.5416667  -0.2916667), wk =   0.0069444
        k(  177) = (   0.5833333  -0.4166667   0.6666667), wk =   0.0069444
        k(  178) = (   0.5416667  -0.3750000   0.6250000), wk =   0.0069444
        k(  179) = (   0.5000000  -0.3333333   0.5833333), wk =   0.0069444
        k(  180) = (   0.4583333  -0.2916667   0.5416667), wk =   0.0069444
        k(  181) = (   0.4166667  -0.2500000   0.5000000), wk =   0.0069444
        k(  182) = (   0.3750000  -0.2083333   0.4583333), wk =   0.0069444
        k(  183) = (   0.3333333  -0.1666667   0.4166667), wk =   0.0069444
        k(  184) = (   0.2916667  -0.1250000   0.3750000), wk =   0.0069444
        k(  185) = (   0.2500000  -0.0833333   0.3333333), wk =   0.0069444
        k(  186) = (   0.2083333  -0.0416667   0.2916667), wk =   0.0069444
        k(  187) = (   0.1666667  -0.0000000   0.2500000), wk =   0.0034722
        k(  188) = (  -0.0833333   0.3333333  -0.0000000), wk =   0.0034722
        k(  189) = (  -0.1250000   0.3750000  -0.0416667), wk =   0.0069444
        k(  190) = (  -0.1666667   0.4166667  -0.0833333), wk =   0.0069444
        k(  191) = (  -0.2083333   0.4583333  -0.1250000), wk =   0.0069444
        k(  192) = (  -0.2500000   0.5000000  -0.1666667), wk =   0.0069444
        k(  193) = (  -0.2916667   0.5416667  -0.2083333), wk =   0.0069444
        k(  194) = (  -0.3333333   0.5833333  -0.2500000), wk =   0.0069444
        k(  195) = (   0.6250000  -0.3750000   0.7083333), wk =   0.0069444
        k(  196) = (   0.5833333  -0.3333333   0.6666667), wk =   0.0069444
        k(  197) = (   0.5416667  -0.2916667   0.6250000), wk =   0.0069444
        k(  198) = (   0.5000000  -0.2500000   0.5833333), wk =   0.0069444
        k(  199) = (   0.4583333  -0.2083333   0.5416667), wk =   0.0069444
        k(  200) = (   0.4166667  -0.1666667   0.5000000), wk =   0.0069444
        k(  201) = (   0.3750000  -0.1250000   0.4583333), wk =   0.0069444
        k(  202) = (   0.3333333  -0.0833333   0.4166667), wk =   0.0069444
        k(  203) = (   0.2916667  -0.0416667   0.3750000), wk =   0.0069444
        k(  204) = (   0.2500000   0.0000000   0.3333333), wk =   0.0034722
        k(  205) = (  -0.0833333   0.4166667   0.0000000), wk =   0.0034722
        k(  206) = (  -0.1250000   0.4583333  -0.0416667), wk =   0.0069444
        k(  207) = (  -0.1666667   0.5000000  -0.0833333), wk =   0.0069444
        k(  208) = (  -0.2083333   0.5416667  -0.1250000), wk =   0.0069444
        k(  209) = (  -0.2500000   0.5833333  -0.1666667), wk =   0.0069444
        k(  210) = (  -0.2916667   0.6250000  -0.2083333), wk =   0.0069444
        k(  211) = (   0.6666667  -0.3333333   0.7500000), wk =   0.0069444
        k(  212) = (   0.6250000  -0.2916667   0.7083333), wk =   0.0069444
        k(  213) = (   0.5833333  -0.2500000   0.6666667), wk =   0.0069444
        k(  214) = (   0.5416667  -0.2083333   0.6250000), wk =   0.0069444
        k(  215) = (   0.5000000  -0.1666667   0.5833333), wk =   0.0069444
        k(  216) = (   0.4583333  -0.1250000   0.5416667), wk =   0.0069444
        k(  217) = (   0.4166667  -0.0833333   0.5000000), wk =   0.0069444
        k(  218) = (   0.3750000  -0.0416667   0.4583333), wk =   0.0069444
        k(  219) = (   0.3333333   0.0000000   0.4166667), wk =   0.0034722
        k(  220) = (  -0.0833333   0.5000000   0.0000000), wk =   0.0034722
        k(  221) = (  -0.1250000   0.5416667  -0.0416667), wk =   0.0069444
        k(  222) = (  -0.1666667   0.5833333  -0.0833333), wk =   0.0069444
        k(  223) = (  -0.2083333   0.6250000  -0.1250000), wk =   0.0069444
        k(  224) = (  -0.2500000   0.6666667  -0.1666667), wk =   0.0069444
        k(  225) = (   0.7083333  -0.2916667   0.7916667), wk =   0.0069444
        k(  226) = (   0.6666667  -0.2500000   0.7500000), wk =   0.0069444
        k(  227) = (   0.6250000  -0.2083333   0.7083333), wk =   0.0069444
        k(  228) = (   0.5833333  -0.1666667   0.6666667), wk =   0.0069444
        k(  229) = (   0.5416667  -0.1250000   0.6250000), wk =   0.0069444
        k(  230) = (   0.5000000  -0.0833333   0.5833333), wk =   0.0069444
        k(  231) = (   0.4583333  -0.0416667   0.5416667), wk =   0.0069444
        k(  232) = (   0.4166667  -0.0000000   0.5000000), wk =   0.0034722
        k(  233) = (  -0.0833333   0.5833333   0.0000000), wk =   0.0034722
        k(  234) = (  -0.1250000   0.6250000  -0.0416667), wk =   0.0069444
        k(  235) = (  -0.1666667   0.6666667  -0.0833333), wk =   0.0069444
        k(  236) = (  -0.2083333   0.7083333  -0.1250000), wk =   0.0069444
        k(  237) = (   0.7500000  -0.2500000   0.8333333), wk =   0.0069444
        k(  238) = (   0.7083333  -0.2083333   0.7916667), wk =   0.0069444
        k(  239) = (   0.6666667  -0.1666667   0.7500000), wk =   0.0069444
        k(  240) = (   0.6250000  -0.1250000   0.7083333), wk =   0.0069444
        k(  241) = (   0.5833333  -0.0833333   0.6666667), wk =   0.0069444
        k(  242) = (   0.5416667  -0.0416667   0.6250000), wk =   0.0069444
        k(  243) = (   0.5000000   0.0000000   0.5833333), wk =   0.0034722
        k(  244) = (  -0.0833333   0.6666667   0.0000000), wk =   0.0034722
        k(  245) = (  -0.1250000   0.7083333  -0.0416667), wk =   0.0069444
        k(  246) = (  -0.1666667   0.7500000  -0.0833333), wk =   0.0069444
        k(  247) = (   0.7916667  -0.2083333   0.8750000), wk =   0.0069444
        k(  248) = (   0.7500000  -0.1666667   0.8333333), wk =   0.0069444
        k(  249) = (   0.7083333  -0.1250000   0.7916667), wk =   0.0069444
        k(  250) = (   0.6666667  -0.0833333   0.7500000), wk =   0.0069444
        k(  251) = (   0.6250000  -0.0416667   0.7083333), wk =   0.0069444
        k(  252) = (   0.5833333   0.0000000   0.6666667), wk =   0.0034722
        k(  253) = (  -0.0833333   0.7500000   0.0000000), wk =   0.0034722
        k(  254) = (  -0.1250000   0.7916667  -0.0416667), wk =   0.0069444
        k(  255) = (   0.8333333  -0.1666667   0.9166667), wk =   0.0069444
        k(  256) = (   0.7916667  -0.1250000   0.8750000), wk =   0.0069444
        k(  257) = (   0.7500000  -0.0833333   0.8333333), wk =   0.0069444
        k(  258) = (   0.7083333  -0.0416667   0.7916667), wk =   0.0069444
        k(  259) = (   0.6666667  -0.0000000   0.7500000), wk =   0.0034722
        k(  260) = (  -0.0833333   0.8333333   0.0000000), wk =   0.0034722
        k(  261) = (   0.8750000  -0.1250000   0.9583333), wk =   0.0069444
        k(  262) = (   0.8333333  -0.0833333   0.9166667), wk =   0.0069444
        k(  263) = (   0.7916667  -0.0416667   0.8750000), wk =   0.0069444
        k(  264) = (   0.7500000   0.0000000   0.8333333), wk =   0.0034722
        k(  265) = (   0.9166667  -0.0833333   1.0000000), wk =   0.0034722
        k(  266) = (   0.8750000  -0.0416667   0.9583333), wk =   0.0069444
        k(  267) = (   0.8333333   0.0000000   0.9166667), wk =   0.0034722
        k(  268) = (  -0.0833333  -1.0000000   0.0000000), wk =   0.0017361
        k(  269) = (  -0.1666667   0.3333333   0.0000000), wk =   0.0034722
        k(  270) = (  -0.2083333   0.3750000  -0.0416667), wk =   0.0069444
        k(  271) = (  -0.2500000   0.4166667  -0.0833333), wk =   0.0069444
        k(  272) = (  -0.2916667   0.4583333  -0.1250000), wk =   0.0069444
        k(  273) = (  -0.3333333   0.5000000  -0.1666667), wk =   0.0069444
        k(  274) = (  -0.3750000   0.5416667  -0.2083333), wk =   0.0069444
        k(  275) = (   0.5833333  -0.4166667   0.7500000), wk =   0.0069444
        k(  276) = (   0.5416667  -0.3750000   0.7083333), wk =   0.0069444
        k(  277) = (   0.5000000  -0.3333333   0.6666667), wk =   0.0034722
        k(  278) = (  -0.1666667   0.4166667   0.0000000), wk =   0.0034722
        k(  279) = (  -0.2083333   0.4583333  -0.0416667), wk =   0.0069444
        k(  280) = (  -0.2500000   0.5000000  -0.0833333), wk =   0.0069444
        k(  281) = (  -0.2916667   0.5416667  -0.1250000), wk =   0.0069444
        k(  282) = (  -0.3333333   0.5833333  -0.1666667), wk =   0.0069444
        k(  283) = (   0.6250000  -0.3750000   0.7916667), wk =   0.0069444
        k(  284) = (   0.5833333  -0.3333333   0.7500000), wk =   0.0069444
        k(  285) = (   0.5416667  -0.2916667   0.7083333), wk =   0.0069444
        k(  286) = (   0.5000000  -0.2500000   0.6666667), wk =   0.0069444
        k(  287) = (   0.4583333  -0.2083333   0.6250000), wk =   0.0069444
        k(  288) = (   0.4166667  -0.1666667   0.5833333), wk =   0.0069444
        k(  289) = (   0.3750000  -0.1250000   0.5416667), wk =   0.0069444
        k(  290) = (   0.3333333  -0.0833333   0.5000000), wk =   0.0069444
        k(  291) = (   0.2916667  -0.0416667   0.4583333), wk =   0.0069444
        k(  292) = (   0.2500000   0.0000000   0.4166667), wk =   0.0034722
        k(  293) = (  -0.1666667   0.5000000   0.0000000), wk =   0.0034722
        k(  294) = (  -0.2083333   0.5416667  -0.0416667), wk =   0.0069444
        k(  295) = (  -0.2500000   0.5833333  -0.0833333), wk =   0.0069444
        k(  296) = (  -0.2916667   0.6250000  -0.1250000), wk =   0.0069444
        k(  297) = (   0.6666667  -0.3333333   0.8333333), wk =   0.0069444
        k(  298) = (   0.6250000  -0.2916667   0.7916667), wk =   0.0069444
        k(  299) = (   0.5833333  -0.2500000   0.7500000), wk =   0.0069444
        k(  300) = (   0.5416667  -0.2083333   0.7083333), wk =   0.0069444
        k(  301) = (   0.5000000  -0.1666667   0.6666667), wk =   0.0069444
        k(  302) = (   0.4583333  -0.1250000   0.6250000), wk =   0.0069444
        k(  303) = (   0.4166667  -0.0833333   0.5833333), wk =   0.0069444
        k(  304) = (   0.3750000  -0.0416667   0.5416667), wk =   0.0069444
        k(  305) = (   0.3333333   0.0000000   0.5000000), wk =   0.0034722
        k(  306) = (  -0.1666667   0.5833333   0.0000000), wk =   0.0034722
        k(  307) = (  -0.2083333   0.6250000  -0.0416667), wk =   0.0069444
        k(  308) = (  -0.2500000   0.6666667  -0.0833333), wk =   0.0069444
        k(  309) = (   0.7083333  -0.2916667   0.8750000), wk =   0.0069444
        k(  310) = (   0.6666667  -0.2500000   0.8333333), wk =   0.0069444
        k(  311) = (   0.6250000  -0.2083333   0.7916667), wk =   0.0069444
        k(  312) = (   0.5833333  -0.1666667   0.7500000), wk =   0.0069444
        k(  313) = (   0.5416667  -0.1250000   0.7083333), wk =   0.0069444
        k(  314) = (   0.5000000  -0.0833333   0.6666667), wk =   0.0069444
        k(  315) = (   0.4583333  -0.0416667   0.6250000), wk =   0.0069444
        k(  316) = (   0.4166667   0.0000000   0.5833333), wk =   0.0034722
        k(  317) = (  -0.1666667   0.6666667  -0.0000000), wk =   0.0034722
        k(  318) = (  -0.2083333   0.7083333  -0.0416667), wk =   0.0069444
        k(  319) = (   0.7500000  -0.2500000   0.9166667), wk =   0.0069444
        k(  320) = (   0.7083333  -0.2083333   0.8750000), wk =   0.0069444
        k(  321) = (   0.6666667  -0.1666667   0.8333333), wk =   0.0069444
        k(  322) = (   0.6250000  -0.1250000   0.7916667), wk =   0.0069444
        k(  323) = (   0.5833333  -0.0833333   0.7500000), wk =   0.0069444
        k(  324) = (   0.5416667  -0.0416667   0.7083333), wk =   0.0069444
        k(  325) = (   0.5000000   0.0000000   0.6666667), wk =   0.0034722
        k(  326) = (  -0.1666667   0.7500000   0.0000000), wk =   0.0034722
        k(  327) = (   0.7916667  -0.2083333   0.9583333), wk =   0.0069444
        k(  328) = (   0.7500000  -0.1666667   0.9166667), wk =   0.0069444
        k(  329) = (   0.7083333  -0.1250000   0.8750000), wk =   0.0069444
        k(  330) = (   0.6666667  -0.0833333   0.8333333), wk =   0.0069444
        k(  331) = (   0.6250000  -0.0416667   0.7916667), wk =   0.0069444
        k(  332) = (   0.5833333   0.0000000   0.7500000), wk =   0.0034722
        k(  333) = (   0.8333333  -0.1666667   1.0000000), wk =   0.0034722
        k(  334) = (   0.7916667  -0.1250000   0.9583333), wk =   0.0069444
        k(  335) = (   0.7500000  -0.0833333   0.9166667), wk =   0.0069444
        k(  336) = (   0.7083333  -0.0416667   0.8750000), wk =   0.0069444
        k(  337) = (   0.6666667   0.0000000   0.8333333), wk =   0.0034722
        k(  338) = (   0.8333333  -0.0833333   1.0000000), wk =   0.0034722
        k(  339) = (   0.7916667  -0.0416667   0.9583333), wk =   0.0069444
        k(  340) = (   0.7500000   0.0000000   0.9166667), wk =   0.0034722
        k(  341) = (  -0.1666667  -1.0000000  -0.0000000), wk =   0.0017361
        k(  342) = (  -0.2500000   0.5000000   0.0000000), wk =   0.0034722
        k(  343) = (  -0.2916667   0.5416667  -0.0416667), wk =   0.0069444
        k(  344) = (  -0.3333333   0.5833333  -0.0833333), wk =   0.0069444
        k(  345) = (   0.6250000  -0.3750000   0.8750000), wk =   0.0069444
        k(  346) = (   0.5833333  -0.3333333   0.8333333), wk =   0.0069444
        k(  347) = (   0.5416667  -0.2916667   0.7916667), wk =   0.0069444
        k(  348) = (   0.5000000  -0.2500000   0.7500000), wk =   0.0034722
        k(  349) = (  -0.2500000   0.5833333   0.0000000), wk =   0.0034722
        k(  350) = (  -0.2916667   0.6250000  -0.0416667), wk =   0.0069444
        k(  351) = (   0.6666667  -0.3333333   0.9166667), wk =   0.0069444
        k(  352) = (   0.6250000  -0.2916667   0.8750000), wk =   0.0069444
        k(  353) = (   0.5833333  -0.2500000   0.8333333), wk =   0.0069444
        k(  354) = (   0.5416667  -0.2083333   0.7916667), wk =   0.0069444
        k(  355) = (   0.5000000  -0.1666667   0.7500000), wk =   0.0069444
        k(  356) = (   0.4583333  -0.1250000   0.7083333), wk =   0.0069444
        k(  357) = (   0.4166667  -0.0833333   0.6666667), wk =   0.0069444
        k(  358) = (   0.3750000  -0.0416667   0.6250000), wk =   0.0069444
        k(  359) = (   0.3333333   0.0000000   0.5833333), wk =   0.0034722
        k(  360) = (  -0.2500000   0.6666667   0.0000000), wk =   0.0034722
        k(  361) = (   0.7083333  -0.2916667   0.9583333), wk =   0.0069444
        k(  362) = (   0.6666667  -0.2500000   0.9166667), wk =   0.0069444
        k(  363) = (   0.6250000  -0.2083333   0.8750000), wk =   0.0069444
        k(  364) = (   0.5833333  -0.1666667   0.8333333), wk =   0.0069444
        k(  365) = (   0.5416667  -0.1250000   0.7916667), wk =   0.0069444
        k(  366) = (   0.5000000  -0.0833333   0.7500000), wk =   0.0069444
        k(  367) = (   0.4583333  -0.0416667   0.7083333), wk =   0.0069444
        k(  368) = (   0.4166667  -0.0000000   0.6666667), wk =   0.0034722
        k(  369) = (   0.7500000  -0.2500000   1.0000000), wk =   0.0034722
        k(  370) = (   0.7083333  -0.2083333   0.9583333), wk =   0.0069444
        k(  371) = (   0.6666667  -0.1666667   0.9166667), wk =   0.0069444
        k(  372) = (   0.6250000  -0.1250000   0.8750000), wk =   0.0069444
        k(  373) = (   0.5833333  -0.0833333   0.8333333), wk =   0.0069444
        k(  374) = (   0.5416667  -0.0416667   0.7916667), wk =   0.0069444
        k(  375) = (   0.5000000   0.0000000   0.7500000), wk =   0.0034722
        k(  376) = (   0.7500000  -0.1666667   1.0000000), wk =   0.0034722
        k(  377) = (   0.7083333  -0.1250000   0.9583333), wk =   0.0069444
        k(  378) = (   0.6666667  -0.0833333   0.9166667), wk =   0.0069444
        k(  379) = (   0.6250000  -0.0416667   0.8750000), wk =   0.0069444
        k(  380) = (   0.5833333   0.0000000   0.8333333), wk =   0.0034722
        k(  381) = (   0.7500000  -0.0833333   1.0000000), wk =   0.0034722
        k(  382) = (   0.7083333  -0.0416667   0.9583333), wk =   0.0069444
        k(  383) = (   0.6666667  -0.0000000   0.9166667), wk =   0.0034722
        k(  384) = (  -0.2500000  -1.0000000   0.0000000), wk =   0.0017361
        k(  385) = (   0.6666667  -0.3333333   1.0000000), wk =   0.0034722
        k(  386) = (   0.6250000  -0.2916667   0.9583333), wk =   0.0069444
        k(  387) = (   0.5833333  -0.2500000   0.9166667), wk =   0.0069444
        k(  388) = (   0.5416667  -0.2083333   0.8750000), wk =   0.0069444
        k(  389) = (   0.5000000  -0.1666667   0.8333333), wk =   0.0034722
        k(  390) = (   0.6666667  -0.2500000   1.0000000), wk =   0.0034722
        k(  391) = (   0.6250000  -0.2083333   0.9583333), wk =   0.0069444
        k(  392) = (   0.5833333  -0.1666667   0.9166667), wk =   0.0069444
        k(  393) = (   0.5416667  -0.1250000   0.8750000), wk =   0.0069444
        k(  394) = (   0.5000000  -0.0833333   0.8333333), wk =   0.0069444
        k(  395) = (   0.4583333  -0.0416667   0.7916667), wk =   0.0069444
        k(  396) = (   0.4166667  -0.0000000   0.7500000), wk =   0.0034722
        k(  397) = (   0.6666667  -0.1666667   1.0000000), wk =   0.0034722
        k(  398) = (   0.6250000  -0.1250000   0.9583333), wk =   0.0069444
        k(  399) = (   0.5833333  -0.0833333   0.9166667), wk =   0.0069444
        k(  400) = (   0.5416667  -0.0416667   0.8750000), wk =   0.0069444
        k(  401) = (   0.5000000   0.0000000   0.8333333), wk =   0.0034722
        k(  402) = (   0.6666667  -0.0833333   1.0000000), wk =   0.0034722
        k(  403) = (   0.6250000  -0.0416667   0.9583333), wk =   0.0069444
        k(  404) = (   0.5833333   0.0000000   0.9166667), wk =   0.0034722
        k(  405) = (  -0.3333333  -1.0000000   0.0000000), wk =   0.0017361
        k(  406) = (   0.5833333  -0.1666667   1.0000000), wk =   0.0034722
        k(  407) = (   0.5416667  -0.1250000   0.9583333), wk =   0.0069444
        k(  408) = (   0.5000000  -0.0833333   0.9166667), wk =   0.0034722
        k(  409) = (   0.5833333  -0.0833333   1.0000000), wk =   0.0034722
        k(  410) = (   0.5416667  -0.0416667   0.9583333), wk =   0.0069444
        k(  411) = (   0.5000000  -0.0000000   0.9166667), wk =   0.0034722
        k(  412) = (  -0.4166667  -1.0000000   0.0000000), wk =   0.0017361
        k(  413) = (  -0.5000000  -1.0000000   0.0000000), wk =   0.0008681

                       cryst. coord.
        k(    1) = (   0.0000000   0.0000000   0.0000000), wk =   0.0001447
        k(    2) = (   0.0000000   0.0000000   0.0416667), wk =   0.0011574
        k(    3) = (   0.0000000   0.0000000   0.0833333), wk =   0.0011574
        k(    4) = (   0.0000000   0.0000000   0.1250000), wk =   0.0011574
        k(    5) = (   0.0000000   0.0000000   0.1666667), wk =   0.0011574
        k(    6) = (   0.0000000   0.0000000   0.2083333), wk =   0.0011574
        k(    7) = (   0.0000000   0.0000000   0.2500000), wk =   0.0011574
        k(    8) = (   0.0000000   0.0000000   0.2916667), wk =   0.0011574
        k(    9) = (   0.0000000   0.0000000   0.3333333), wk =   0.0011574
        k(   10) = (   0.0000000   0.0000000   0.3750000), wk =   0.0011574
        k(   11) = (   0.0000000   0.0000000   0.4166667), wk =   0.0011574
        k(   12) = (   0.0000000   0.0000000   0.4583333), wk =   0.0011574
        k(   13) = (   0.0000000   0.0000000  -0.5000000), wk =   0.0005787
        k(   14) = (   0.0000000   0.0416667   0.0416667), wk =   0.0008681
        k(   15) = (   0.0000000   0.0416667   0.0833333), wk =   0.0034722
        k(   16) = (   0.0000000   0.0416667   0.1250000), wk =   0.0034722
        k(   17) = (   0.0000000   0.0416667   0.1666667), wk =   0.0034722
        k(   18) = (   0.0000000   0.0416667   0.2083333), wk =   0.0034722
        k(   19) = (   0.0000000   0.0416667   0.2500000), wk =   0.0034722
        k(   20) = (   0.0000000   0.0416667   0.2916667), wk =   0.0034722
        k(   21) = (   0.0000000   0.0416667   0.3333333), wk =   0.0034722
        k(   22) = (   0.0000000   0.0416667   0.3750000), wk =   0.0034722
        k(   23) = (   0.0000000   0.0416667   0.4166667), wk =   0.0034722
        k(   24) = (   0.0000000   0.0416667   0.4583333), wk =   0.0034722
        k(   25) = (   0.0000000   0.0416667  -0.5000000), wk =   0.0034722
        k(   26) = (   0.0000000   0.0416667  -0.4583333), wk =   0.0034722
        k(   27) = (   0.0000000   0.0416667  -0.4166667), wk =   0.0034722
        k(   28) = (   0.0000000   0.0416667  -0.3750000), wk =   0.0034722
        k(   29) = (   0.0000000   0.0416667  -0.3333333), wk =   0.0034722
        k(   30) = (   0.0000000   0.0416667  -0.2916667), wk =   0.0034722
        k(   31) = (   0.0000000   0.0416667  -0.2500000), wk =   0.0034722
        k(   32) = (   0.0000000   0.0416667  -0.2083333), wk =   0.0034722
        k(   33) = (   0.0000000   0.0416667  -0.1666667), wk =   0.0034722
        k(   34) = (   0.0000000   0.0416667  -0.1250000), wk =   0.0034722
        k(   35) = (   0.0000000   0.0416667  -0.0833333), wk =   0.0034722
        k(   36) = (   0.0000000   0.0416667  -0.0416667), wk =   0.0017361
        k(   37) = (   0.0000000   0.0833333   0.0833333), wk =   0.0008681
        k(   38) = (   0.0000000   0.0833333   0.1250000), wk =   0.0034722
        k(   39) = (   0.0000000   0.0833333   0.1666667), wk =   0.0034722
        k(   40) = (   0.0000000   0.0833333   0.2083333), wk =   0.0034722
        k(   41) = (   0.0000000   0.0833333   0.2500000), wk =   0.0034722
        k(   42) = (   0.0000000   0.0833333   0.2916667), wk =   0.0034722
        k(   43) = (   0.0000000   0.0833333   0.3333333), wk =   0.0034722
        k(   44) = (   0.0000000   0.0833333   0.3750000), wk =   0.0034722
        k(   45) = (   0.0000000   0.0833333   0.4166667), wk =   0.0034722
        k(   46) = (   0.0000000   0.0833333   0.4583333), wk =   0.0034722
        k(   47) = (   0.0000000   0.0833333  -0.5000000), wk =   0.0034722
        k(   48) = (   0.0000000   0.0833333  -0.4583333), wk =   0.0034722
        k(   49) = (   0.0000000   0.0833333  -0.4166667), wk =   0.0034722
        k(   50) = (   0.0000000   0.0833333  -0.3750000), wk =   0.0034722
        k(   51) = (   0.0000000   0.0833333  -0.3333333), wk =   0.0034722
        k(   52) = (   0.0000000   0.0833333  -0.2916667), wk =   0.0034722
        k(   53) = (   0.0000000   0.0833333  -0.2500000), wk =   0.0034722
        k(   54) = (   0.0000000   0.0833333  -0.2083333), wk =   0.0034722
        k(   55) = (   0.0000000   0.0833333  -0.1666667), wk =   0.0034722
        k(   56) = (   0.0000000   0.0833333  -0.1250000), wk =   0.0034722
        k(   57) = (   0.0000000   0.0833333  -0.0833333), wk =   0.0017361
        k(   58) = (   0.0000000   0.1250000   0.1250000), wk =   0.0008681
        k(   59) = (   0.0000000   0.1250000   0.1666667), wk =   0.0034722
        k(   60) = (   0.0000000   0.1250000   0.2083333), wk =   0.0034722
        k(   61) = (   0.0000000   0.1250000   0.2500000), wk =   0.0034722
        k(   62) = (   0.0000000   0.1250000   0.2916667), wk =   0.0034722
        k(   63) = (   0.0000000   0.1250000   0.3333333), wk =   0.0034722
        k(   64) = (   0.0000000   0.1250000   0.3750000), wk =   0.0034722
        k(   65) = (   0.0000000   0.1250000   0.4166667), wk =   0.0034722
        k(   66) = (   0.0000000   0.1250000   0.4583333), wk =   0.0034722
        k(   67) = (   0.0000000   0.1250000  -0.5000000), wk =   0.0034722
        k(   68) = (   0.0000000   0.1250000  -0.4583333), wk =   0.0034722
        k(   69) = (   0.0000000   0.1250000  -0.4166667), wk =   0.0034722
        k(   70) = (   0.0000000   0.1250000  -0.3750000), wk =   0.0034722
        k(   71) = (   0.0000000   0.1250000  -0.3333333), wk =   0.0034722
        k(   72) = (   0.0000000   0.1250000  -0.2916667), wk =   0.0034722
        k(   73) = (   0.0000000   0.1250000  -0.2500000), wk =   0.0034722
        k(   74) = (   0.0000000   0.1250000  -0.2083333), wk =   0.0034722
        k(   75) = (   0.0000000   0.1250000  -0.1666667), wk =   0.0034722
        k(   76) = (   0.0000000   0.1250000  -0.1250000), wk =   0.0017361
        k(   77) = (   0.0000000   0.1666667   0.1666667), wk =   0.0008681
        k(   78) = (   0.0000000   0.1666667   0.2083333), wk =   0.0034722
        k(   79) = (   0.0000000   0.1666667   0.2500000), wk =   0.0034722
        k(   80) = (   0.0000000   0.1666667   0.2916667), wk =   0.0034722
        k(   81) = (   0.0000000   0.1666667   0.3333333), wk =   0.0034722
        k(   82) = (   0.0000000   0.1666667   0.3750000), wk =   0.0034722
        k(   83) = (   0.0000000   0.1666667   0.4166667), wk =   0.0034722
        k(   84) = (   0.0000000   0.1666667   0.4583333), wk =   0.0034722
        k(   85) = (   0.0000000   0.1666667  -0.5000000), wk =   0.0034722
        k(   86) = (   0.0000000   0.1666667  -0.4583333), wk =   0.0034722
        k(   87) = (   0.0000000   0.1666667  -0.4166667), wk =   0.0034722
        k(   88) = (   0.0000000   0.1666667  -0.3750000), wk =   0.0034722
        k(   89) = (   0.0000000   0.1666667  -0.3333333), wk =   0.0034722
        k(   90) = (   0.0000000   0.1666667  -0.2916667), wk =   0.0034722
        k(   91) = (   0.0000000   0.1666667  -0.2500000), wk =   0.0034722
        k(   92) = (   0.0000000   0.1666667  -0.2083333), wk =   0.0034722
        k(   93) = (   0.0000000   0.1666667  -0.1666667), wk =   0.0017361
        k(   94) = (   0.0000000   0.2083333   0.2083333), wk =   0.0008681
        k(   95) = (   0.0000000   0.2083333   0.2500000), wk =   0.0034722
        k(   96) = (   0.0000000   0.2083333   0.2916667), wk =   0.0034722
        k(   97) = (   0.0000000   0.2083333   0.3333333), wk =   0.0034722
        k(   98) = (   0.0000000   0.2083333   0.3750000), wk =   0.0034722
        k(   99) = (   0.0000000   0.2083333   0.4166667), wk =   0.0034722
        k(  100) = (   0.0000000   0.2083333   0.4583333), wk =   0.0034722
        k(  101) = (   0.0000000   0.2083333  -0.5000000), wk =   0.0034722
        k(  102) = (   0.0000000   0.2083333  -0.4583333), wk =   0.0034722
        k(  103) = (   0.0000000   0.2083333  -0.4166667), wk =   0.0034722
        k(  104) = (   0.0000000   0.2083333  -0.3750000), wk =   0.0034722
        k(  105) = (   0.0000000   0.2083333  -0.3333333), wk =   0.0034722
        k(  106) = (   0.0000000   0.2083333  -0.2916667), wk =   0.0034722
        k(  107) = (   0.0000000   0.2083333  -0.2500000), wk =   0.0034722
        k(  108) = (   0.0000000   0.2083333  -0.2083333), wk =   0.0017361
        k(  109) = (   0.0000000   0.2500000   0.2500000), wk =   0.0008681
        k(  110) = (   0.0000000   0.2500000   0.2916667), wk =   0.0034722
        k(  111) = (   0.0000000   0.2500000   0.3333333), wk =   0.0034722
        k(  112) = (   0.0000000   0.2500000   0.3750000), wk =   0.0034722
        k(  113) = (   0.0000000   0.2500000   0.4166667), wk =   0.0034722
        k(  114) = (   0.0000000   0.2500000   0.4583333), wk =   0.0034722
        k(  115) = (   0.0000000   0.2500000  -0.5000000), wk =   0.0034722
        k(  116) = (   0.0000000   0.2500000  -0.4583333), wk =   0.0034722
        k(  117) = (   0.0000000   0.2500000  -0.4166667), wk =   0.0034722
        k(  118) = (   0.0000000   0.2500000  -0.3750000), wk =   0.0034722
        k(  119) = (   0.0000000   0.2500000  -0.3333333), wk =   0.0034722
        k(  120) = (   0.0000000   0.2500000  -0.2916667), wk =   0.0034722
        k(  121) = (   0.0000000   0.2500000  -0.2500000), wk =   0.0017361
        k(  122) = (   0.0000000   0.2916667   0.2916667), wk =   0.0008681
        k(  123) = (   0.0000000   0.2916667   0.3333333), wk =   0.0034722
        k(  124) = (   0.0000000   0.2916667   0.3750000), wk =   0.0034722
        k(  125) = (   0.0000000   0.2916667   0.4166667), wk =   0.0034722
        k(  126) = (   0.0000000   0.2916667   0.4583333), wk =   0.0034722
        k(  127) = (   0.0000000   0.2916667  -0.5000000), wk =   0.0034722
        k(  128) = (   0.0000000   0.2916667  -0.4583333), wk =   0.0034722
        k(  129) = (   0.0000000   0.2916667  -0.4166667), wk =   0.0034722
        k(  130) = (   0.0000000   0.2916667  -0.3750000), wk =   0.0034722
        k(  131) = (   0.0000000   0.2916667  -0.3333333), wk =   0.0034722
        k(  132) = (   0.0000000   0.2916667  -0.2916667), wk =   0.0017361
        k(  133) = (   0.0000000   0.3333333   0.3333333), wk =   0.0008681
        k(  134) = (   0.0000000   0.3333333   0.3750000), wk =   0.0034722
        k(  135) = (   0.0000000   0.3333333   0.4166667), wk =   0.0034722
        k(  136) = (   0.0000000   0.3333333   0.4583333), wk =   0.0034722
        k(  137) = (   0.0000000   0.3333333  -0.5000000), wk =   0.0034722
        k(  138) = (   0.0000000   0.3333333  -0.4583333), wk =   0.0034722
        k(  139) = (   0.0000000   0.3333333  -0.4166667), wk =   0.0034722
        k(  140) = (   0.0000000   0.3333333  -0.3750000), wk =   0.0034722
        k(  141) = (   0.0000000   0.3333333  -0.3333333), wk =   0.0017361
        k(  142) = (   0.0000000   0.3750000   0.3750000), wk =   0.0008681
        k(  143) = (   0.0000000   0.3750000   0.4166667), wk =   0.0034722
        k(  144) = (   0.0000000   0.3750000   0.4583333), wk =   0.0034722
        k(  145) = (   0.0000000   0.3750000  -0.5000000), wk =   0.0034722
        k(  146) = (   0.0000000   0.3750000  -0.4583333), wk =   0.0034722
        k(  147) = (   0.0000000   0.3750000  -0.4166667), wk =   0.0034722
        k(  148) = (   0.0000000   0.3750000  -0.3750000), wk =   0.0017361
        k(  149) = (   0.0000000   0.4166667   0.4166667), wk =   0.0008681
        k(  150) = (   0.0000000   0.4166667   0.4583333), wk =   0.0034722
        k(  151) = (   0.0000000   0.4166667  -0.5000000), wk =   0.0034722
        k(  152) = (   0.0000000   0.4166667  -0.4583333), wk =   0.0034722
        k(  153) = (   0.0000000   0.4166667  -0.4166667), wk =   0.0017361
        k(  154) = (   0.0000000   0.4583333   0.4583333), wk =   0.0008681
        k(  155) = (   0.0000000   0.4583333  -0.5000000), wk =   0.0034722
        k(  156) = (   0.0000000   0.4583333  -0.4583333), wk =   0.0017361
        k(  157) = (   0.0000000  -0.5000000  -0.5000000), wk =   0.0004340
        k(  158) = (   0.0416667   0.0833333   0.1250000), wk =   0.0034722
        k(  159) = (   0.0416667   0.0833333   0.1666667), wk =   0.0069444
        k(  160) = (   0.0416667   0.0833333   0.2083333), wk =   0.0069444
        k(  161) = (   0.0416667   0.0833333   0.2500000), wk =   0.0069444
        k(  162) = (   0.0416667   0.0833333   0.2916667), wk =   0.0069444
        k(  163) = (   0.0416667   0.0833333   0.3333333), wk =   0.0069444
        k(  164) = (   0.0416667   0.0833333   0.3750000), wk =   0.0069444
        k(  165) = (   0.0416667   0.0833333   0.4166667), wk =   0.0069444
        k(  166) = (   0.0416667   0.0833333   0.4583333), wk =   0.0069444
        k(  167) = (   0.0416667   0.0833333  -0.5000000), wk =   0.0069444
        k(  168) = (   0.0416667   0.0833333  -0.4583333), wk =   0.0034722
        k(  169) = (   0.0416667   0.1250000   0.1666667), wk =   0.0034722
        k(  170) = (   0.0416667   0.1250000   0.2083333), wk =   0.0069444
        k(  171) = (   0.0416667   0.1250000   0.2500000), wk =   0.0069444
        k(  172) = (   0.0416667   0.1250000   0.2916667), wk =   0.0069444
        k(  173) = (   0.0416667   0.1250000   0.3333333), wk =   0.0069444
        k(  174) = (   0.0416667   0.1250000   0.3750000), wk =   0.0069444
        k(  175) = (   0.0416667   0.1250000   0.4166667), wk =   0.0069444
        k(  176) = (   0.0416667   0.1250000   0.4583333), wk =   0.0069444
        k(  177) = (   0.0416667   0.1250000  -0.5000000), wk =   0.0069444
        k(  178) = (   0.0416667   0.1250000  -0.4583333), wk =   0.0069444
        k(  179) = (   0.0416667   0.1250000  -0.4166667), wk =   0.0069444
        k(  180) = (   0.0416667   0.1250000  -0.3750000), wk =   0.0069444
        k(  181) = (   0.0416667   0.1250000  -0.3333333), wk =   0.0069444
        k(  182) = (   0.0416667   0.1250000  -0.2916667), wk =   0.0069444
        k(  183) = (   0.0416667   0.1250000  -0.2500000), wk =   0.0069444
        k(  184) = (   0.0416667   0.1250000  -0.2083333), wk =   0.0069444
        k(  185) = (   0.0416667   0.1250000  -0.1666667), wk =   0.0069444
        k(  186) = (   0.0416667   0.1250000  -0.1250000), wk =   0.0069444
        k(  187) = (   0.0416667   0.1250000  -0.0833333), wk =   0.0034722
        k(  188) = (   0.0416667   0.1666667   0.2083333), wk =   0.0034722
        k(  189) = (   0.0416667   0.1666667   0.2500000), wk =   0.0069444
        k(  190) = (   0.0416667   0.1666667   0.2916667), wk =   0.0069444
        k(  191) = (   0.0416667   0.1666667   0.3333333), wk =   0.0069444
        k(  192) = (   0.0416667   0.1666667   0.3750000), wk =   0.0069444
        k(  193) = (   0.0416667   0.1666667   0.4166667), wk =   0.0069444
        k(  194) = (   0.0416667   0.1666667   0.4583333), wk =   0.0069444
        k(  195) = (   0.0416667   0.1666667  -0.5000000), wk =   0.0069444
        k(  196) = (   0.0416667   0.1666667  -0.4583333), wk =   0.0069444
        k(  197) = (   0.0416667   0.1666667  -0.4166667), wk =   0.0069444
        k(  198) = (   0.0416667   0.1666667  -0.3750000), wk =   0.0069444
        k(  199) = (   0.0416667   0.1666667  -0.3333333), wk =   0.0069444
        k(  200) = (   0.0416667   0.1666667  -0.2916667), wk =   0.0069444
        k(  201) = (   0.0416667   0.1666667  -0.2500000), wk =   0.0069444
        k(  202) = (   0.0416667   0.1666667  -0.2083333), wk =   0.0069444
        k(  203) = (   0.0416667   0.1666667  -0.1666667), wk =   0.0069444
        k(  204) = (   0.0416667   0.1666667  -0.1250000), wk =   0.0034722
        k(  205) = (   0.0416667   0.2083333   0.2500000), wk =   0.0034722
        k(  206) = (   0.0416667   0.2083333   0.2916667), wk =   0.0069444
        k(  207) = (   0.0416667   0.2083333   0.3333333), wk =   0.0069444
        k(  208) = (   0.0416667   0.2083333   0.3750000), wk =   0.0069444
        k(  209) = (   0.0416667   0.2083333   0.4166667), wk =   0.0069444
        k(  210) = (   0.0416667   0.2083333   0.4583333), wk =   0.0069444
        k(  211) = (   0.0416667   0.2083333  -0.5000000), wk =   0.0069444
        k(  212) = (   0.0416667   0.2083333  -0.4583333), wk =   0.0069444
        k(  213) = (   0.0416667   0.2083333  -0.4166667), wk =   0.0069444
        k(  214) = (   0.0416667   0.2083333  -0.3750000), wk =   0.0069444
        k(  215) = (   0.0416667   0.2083333  -0.3333333), wk =   0.0069444
        k(  216) = (   0.0416667   0.2083333  -0.2916667), wk =   0.0069444
        k(  217) = (   0.0416667   0.2083333  -0.2500000), wk =   0.0069444
        k(  218) = (   0.0416667   0.2083333  -0.2083333), wk =   0.0069444
        k(  219) = (   0.0416667   0.2083333  -0.1666667), wk =   0.0034722
        k(  220) = (   0.0416667   0.2500000   0.2916667), wk =   0.0034722
        k(  221) = (   0.0416667   0.2500000   0.3333333), wk =   0.0069444
        k(  222) = (   0.0416667   0.2500000   0.3750000), wk =   0.0069444
        k(  223) = (   0.0416667   0.2500000   0.4166667), wk =   0.0069444
        k(  224) = (   0.0416667   0.2500000   0.4583333), wk =   0.0069444
        k(  225) = (   0.0416667   0.2500000  -0.5000000), wk =   0.0069444
        k(  226) = (   0.0416667   0.2500000  -0.4583333), wk =   0.0069444
        k(  227) = (   0.0416667   0.2500000  -0.4166667), wk =   0.0069444
        k(  228) = (   0.0416667   0.2500000  -0.3750000), wk =   0.0069444
        k(  229) = (   0.0416667   0.2500000  -0.3333333), wk =   0.0069444
        k(  230) = (   0.0416667   0.2500000  -0.2916667), wk =   0.0069444
        k(  231) = (   0.0416667   0.2500000  -0.2500000), wk =   0.0069444
        k(  232) = (   0.0416667   0.2500000  -0.2083333), wk =   0.0034722
        k(  233) = (   0.0416667   0.2916667   0.3333333), wk =   0.0034722
        k(  234) = (   0.0416667   0.2916667   0.3750000), wk =   0.0069444
        k(  235) = (   0.0416667   0.2916667   0.4166667), wk =   0.0069444
        k(  236) = (   0.0416667   0.2916667   0.4583333), wk =   0.0069444
        k(  237) = (   0.0416667   0.2916667  -0.5000000), wk =   0.0069444
        k(  238) = (   0.0416667   0.2916667  -0.4583333), wk =   0.0069444
        k(  239) = (   0.0416667   0.2916667  -0.4166667), wk =   0.0069444
        k(  240) = (   0.0416667   0.2916667  -0.3750000), wk =   0.0069444
        k(  241) = (   0.0416667   0.2916667  -0.3333333), wk =   0.0069444
        k(  242) = (   0.0416667   0.2916667  -0.2916667), wk =   0.0069444
        k(  243) = (   0.0416667   0.2916667  -0.2500000), wk =   0.0034722
        k(  244) = (   0.0416667   0.3333333   0.3750000), wk =   0.0034722
        k(  245) = (   0.0416667   0.3333333   0.4166667), wk =   0.0069444
        k(  246) = (   0.0416667   0.3333333   0.4583333), wk =   0.0069444
        k(  247) = (   0.0416667   0.3333333  -0.5000000), wk =   0.0069444
        k(  248) = (   0.0416667   0.3333333  -0.4583333), wk =   0.0069444
        k(  249) = (   0.0416667   0.3333333  -0.4166667), wk =   0.0069444
        k(  250) = (   0.0416667   0.3333333  -0.3750000), wk =   0.0069444
        k(  251) = (   0.0416667   0.3333333  -0.3333333), wk =   0.0069444
        k(  252) = (   0.0416667   0.3333333  -0.2916667), wk =   0.0034722
        k(  253) = (   0.0416667   0.3750000   0.4166667), wk =   0.0034722
        k(  254) = (   0.0416667   0.3750000   0.4583333), wk =   0.0069444
        k(  255) = (   0.0416667   0.3750000  -0.5000000), wk =   0.0069444
        k(  256) = (   0.0416667   0.3750000  -0.4583333), wk =   0.0069444
        k(  257) = (   0.0416667   0.3750000  -0.4166667), wk =   0.0069444
        k(  258) = (   0.0416667   0.3750000  -0.3750000), wk =   0.0069444
        k(  259) = (   0.0416667   0.3750000  -0.3333333), wk =   0.0034722
        k(  260) = (   0.0416667   0.4166667   0.4583333), wk =   0.0034722
        k(  261) = (   0.0416667   0.4166667  -0.5000000), wk =   0.0069444
        k(  262) = (   0.0416667   0.4166667  -0.4583333), wk =   0.0069444
        k(  263) = (   0.0416667   0.4166667  -0.4166667), wk =   0.0069444
        k(  264) = (   0.0416667   0.4166667  -0.3750000), wk =   0.0034722
        k(  265) = (   0.0416667   0.4583333  -0.5000000), wk =   0.0034722
        k(  266) = (   0.0416667   0.4583333  -0.4583333), wk =   0.0069444
        k(  267) = (   0.0416667   0.4583333  -0.4166667), wk =   0.0034722
        k(  268) = (   0.0416667  -0.5000000  -0.4583333), wk =   0.0017361
        k(  269) = (   0.0833333   0.1666667   0.2500000), wk =   0.0034722
        k(  270) = (   0.0833333   0.1666667   0.2916667), wk =   0.0069444
        k(  271) = (   0.0833333   0.1666667   0.3333333), wk =   0.0069444
        k(  272) = (   0.0833333   0.1666667   0.3750000), wk =   0.0069444
        k(  273) = (   0.0833333   0.1666667   0.4166667), wk =   0.0069444
        k(  274) = (   0.0833333   0.1666667   0.4583333), wk =   0.0069444
        k(  275) = (   0.0833333   0.1666667  -0.5000000), wk =   0.0069444
        k(  276) = (   0.0833333   0.1666667  -0.4583333), wk =   0.0069444
        k(  277) = (   0.0833333   0.1666667  -0.4166667), wk =   0.0034722
        k(  278) = (   0.0833333   0.2083333   0.2916667), wk =   0.0034722
        k(  279) = (   0.0833333   0.2083333   0.3333333), wk =   0.0069444
        k(  280) = (   0.0833333   0.2083333   0.3750000), wk =   0.0069444
        k(  281) = (   0.0833333   0.2083333   0.4166667), wk =   0.0069444
        k(  282) = (   0.0833333   0.2083333   0.4583333), wk =   0.0069444
        k(  283) = (   0.0833333   0.2083333  -0.5000000), wk =   0.0069444
        k(  284) = (   0.0833333   0.2083333  -0.4583333), wk =   0.0069444
        k(  285) = (   0.0833333   0.2083333  -0.4166667), wk =   0.0069444
        k(  286) = (   0.0833333   0.2083333  -0.3750000), wk =   0.0069444
        k(  287) = (   0.0833333   0.2083333  -0.3333333), wk =   0.0069444
        k(  288) = (   0.0833333   0.2083333  -0.2916667), wk =   0.0069444
        k(  289) = (   0.0833333   0.2083333  -0.2500000), wk =   0.0069444
        k(  290) = (   0.0833333   0.2083333  -0.2083333), wk =   0.0069444
        k(  291) = (   0.0833333   0.2083333  -0.1666667), wk =   0.0069444
        k(  292) = (   0.0833333   0.2083333  -0.1250000), wk =   0.0034722
        k(  293) = (   0.0833333   0.2500000   0.3333333), wk =   0.0034722
        k(  294) = (   0.0833333   0.2500000   0.3750000), wk =   0.0069444
        k(  295) = (   0.0833333   0.2500000   0.4166667), wk =   0.0069444
        k(  296) = (   0.0833333   0.2500000   0.4583333), wk =   0.0069444
        k(  297) = (   0.0833333   0.2500000  -0.5000000), wk =   0.0069444
        k(  298) = (   0.0833333   0.2500000  -0.4583333), wk =   0.0069444
        k(  299) = (   0.0833333   0.2500000  -0.4166667), wk =   0.0069444
        k(  300) = (   0.0833333   0.2500000  -0.3750000), wk =   0.0069444
        k(  301) = (   0.0833333   0.2500000  -0.3333333), wk =   0.0069444
        k(  302) = (   0.0833333   0.2500000  -0.2916667), wk =   0.0069444
        k(  303) = (   0.0833333   0.2500000  -0.2500000), wk =   0.0069444
        k(  304) = (   0.0833333   0.2500000  -0.2083333), wk =   0.0069444
        k(  305) = (   0.0833333   0.2500000  -0.1666667), wk =   0.0034722
        k(  306) = (   0.0833333   0.2916667   0.3750000), wk =   0.0034722
        k(  307) = (   0.0833333   0.2916667   0.4166667), wk =   0.0069444
        k(  308) = (   0.0833333   0.2916667   0.4583333), wk =   0.0069444
        k(  309) = (   0.0833333   0.2916667  -0.5000000), wk =   0.0069444
        k(  310) = (   0.0833333   0.2916667  -0.4583333), wk =   0.0069444
        k(  311) = (   0.0833333   0.2916667  -0.4166667), wk =   0.0069444
        k(  312) = (   0.0833333   0.2916667  -0.3750000), wk =   0.0069444
        k(  313) = (   0.0833333   0.2916667  -0.3333333), wk =   0.0069444
        k(  314) = (   0.0833333   0.2916667  -0.2916667), wk =   0.0069444
        k(  315) = (   0.0833333   0.2916667  -0.2500000), wk =   0.0069444
        k(  316) = (   0.0833333   0.2916667  -0.2083333), wk =   0.0034722
        k(  317) = (   0.0833333   0.3333333   0.4166667), wk =   0.0034722
        k(  318) = (   0.0833333   0.3333333   0.4583333), wk =   0.0069444
        k(  319) = (   0.0833333   0.3333333  -0.5000000), wk =   0.0069444
        k(  320) = (   0.0833333   0.3333333  -0.4583333), wk =   0.0069444
        k(  321) = (   0.0833333   0.3333333  -0.4166667), wk =   0.0069444
        k(  322) = (   0.0833333   0.3333333  -0.3750000), wk =   0.0069444
        k(  323) = (   0.0833333   0.3333333  -0.3333333), wk =   0.0069444
        k(  324) = (   0.0833333   0.3333333  -0.2916667), wk =   0.0069444
        k(  325) = (   0.0833333   0.3333333  -0.2500000), wk =   0.0034722
        k(  326) = (   0.0833333   0.3750000   0.4583333), wk =   0.0034722
        k(  327) = (   0.0833333   0.3750000  -0.5000000), wk =   0.0069444
        k(  328) = (   0.0833333   0.3750000  -0.4583333), wk =   0.0069444
        k(  329) = (   0.0833333   0.3750000  -0.4166667), wk =   0.0069444
        k(  330) = (   0.0833333   0.3750000  -0.3750000), wk =   0.0069444
        k(  331) = (   0.0833333   0.3750000  -0.3333333), wk =   0.0069444
        k(  332) = (   0.0833333   0.3750000  -0.2916667), wk =   0.0034722
        k(  333) = (   0.0833333   0.4166667  -0.5000000), wk =   0.0034722
        k(  334) = (   0.0833333   0.4166667  -0.4583333), wk =   0.0069444
        k(  335) = (   0.0833333   0.4166667  -0.4166667), wk =   0.0069444
        k(  336) = (   0.0833333   0.4166667  -0.3750000), wk =   0.0069444
        k(  337) = (   0.0833333   0.4166667  -0.3333333), wk =   0.0034722
        k(  338) = (   0.0833333   0.4583333  -0.4583333), wk =   0.0034722
        k(  339) = (   0.0833333   0.4583333  -0.4166667), wk =   0.0069444
        k(  340) = (   0.0833333   0.4583333  -0.3750000), wk =   0.0034722
        k(  341) = (   0.0833333  -0.5000000  -0.4166667), wk =   0.0017361
        k(  342) = (   0.1250000   0.2500000   0.3750000), wk =   0.0034722
        k(  343) = (   0.1250000   0.2500000   0.4166667), wk =   0.0069444
        k(  344) = (   0.1250000   0.2500000   0.4583333), wk =   0.0069444
        k(  345) = (   0.1250000   0.2500000  -0.5000000), wk =   0.0069444
        k(  346) = (   0.1250000   0.2500000  -0.4583333), wk =   0.0069444
        k(  347) = (   0.1250000   0.2500000  -0.4166667), wk =   0.0069444
        k(  348) = (   0.1250000   0.2500000  -0.3750000), wk =   0.0034722
        k(  349) = (   0.1250000   0.2916667   0.4166667), wk =   0.0034722
        k(  350) = (   0.1250000   0.2916667   0.4583333), wk =   0.0069444
        k(  351) = (   0.1250000   0.2916667  -0.5000000), wk =   0.0069444
        k(  352) = (   0.1250000   0.2916667  -0.4583333), wk =   0.0069444
        k(  353) = (   0.1250000   0.2916667  -0.4166667), wk =   0.0069444
        k(  354) = (   0.1250000   0.2916667  -0.3750000), wk =   0.0069444
        k(  355) = (   0.1250000   0.2916667  -0.3333333), wk =   0.0069444
        k(  356) = (   0.1250000   0.2916667  -0.2916667), wk =   0.0069444
        k(  357) = (   0.1250000   0.2916667  -0.2500000), wk =   0.0069444
        k(  358) = (   0.1250000   0.2916667  -0.2083333), wk =   0.0069444
        k(  359) = (   0.1250000   0.2916667  -0.1666667), wk =   0.0034722
        k(  360) = (   0.1250000   0.3333333   0.4583333), wk =   0.0034722
        k(  361) = (   0.1250000   0.3333333  -0.5000000), wk =   0.0069444
        k(  362) = (   0.1250000   0.3333333  -0.4583333), wk =   0.0069444
        k(  363) = (   0.1250000   0.3333333  -0.4166667), wk =   0.0069444
        k(  364) = (   0.1250000   0.3333333  -0.3750000), wk =   0.0069444
        k(  365) = (   0.1250000   0.3333333  -0.3333333), wk =   0.0069444
        k(  366) = (   0.1250000   0.3333333  -0.2916667), wk =   0.0069444
        k(  367) = (   0.1250000   0.3333333  -0.2500000), wk =   0.0069444
        k(  368) = (   0.1250000   0.3333333  -0.2083333), wk =   0.0034722
        k(  369) = (   0.1250000   0.3750000  -0.5000000), wk =   0.0034722
        k(  370) = (   0.1250000   0.3750000  -0.4583333), wk =   0.0069444
        k(  371) = (   0.1250000   0.3750000  -0.4166667), wk =   0.0069444
        k(  372) = (   0.1250000   0.3750000  -0.3750000), wk =   0.0069444
        k(  373) = (   0.1250000   0.3750000  -0.3333333), wk =   0.0069444
        k(  374) = (   0.1250000   0.3750000  -0.2916667), wk =   0.0069444
        k(  375) = (   0.1250000   0.3750000  -0.2500000), wk =   0.0034722
        k(  376) = (   0.1250000   0.4166667  -0.4583333), wk =   0.0034722
        k(  377) = (   0.1250000   0.4166667  -0.4166667), wk =   0.0069444
        k(  378) = (   0.1250000   0.4166667  -0.3750000), wk =   0.0069444
        k(  379) = (   0.1250000   0.4166667  -0.3333333), wk =   0.0069444
        k(  380) = (   0.1250000   0.4166667  -0.2916667), wk =   0.0034722
        k(  381) = (   0.1250000   0.4583333  -0.4166667), wk =   0.0034722
        k(  382) = (   0.1250000   0.4583333  -0.3750000), wk =   0.0069444
        k(  383) = (   0.1250000   0.4583333  -0.3333333), wk =   0.0034722
        k(  384) = (   0.1250000  -0.5000000  -0.3750000), wk =   0.0017361
        k(  385) = (   0.1666667   0.3333333  -0.5000000), wk =   0.0034722
        k(  386) = (   0.1666667   0.3333333  -0.4583333), wk =   0.0069444
        k(  387) = (   0.1666667   0.3333333  -0.4166667), wk =   0.0069444
        k(  388) = (   0.1666667   0.3333333  -0.3750000), wk =   0.0069444
        k(  389) = (   0.1666667   0.3333333  -0.3333333), wk =   0.0034722
        k(  390) = (   0.1666667   0.3750000  -0.4583333), wk =   0.0034722
        k(  391) = (   0.1666667   0.3750000  -0.4166667), wk =   0.0069444
        k(  392) = (   0.1666667   0.3750000  -0.3750000), wk =   0.0069444
        k(  393) = (   0.1666667   0.3750000  -0.3333333), wk =   0.0069444
        k(  394) = (   0.1666667   0.3750000  -0.2916667), wk =   0.0069444
        k(  395) = (   0.1666667   0.3750000  -0.2500000), wk =   0.0069444
        k(  396) = (   0.1666667   0.3750000  -0.2083333), wk =   0.0034722
        k(  397) = (   0.1666667   0.4166667  -0.4166667), wk =   0.0034722
        k(  398) = (   0.1666667   0.4166667  -0.3750000), wk =   0.0069444
        k(  399) = (   0.1666667   0.4166667  -0.3333333), wk =   0.0069444
        k(  400) = (   0.1666667   0.4166667  -0.2916667), wk =   0.0069444
        k(  401) = (   0.1666667   0.4166667  -0.2500000), wk =   0.0034722
        k(  402) = (   0.1666667   0.4583333  -0.3750000), wk =   0.0034722
        k(  403) = (   0.1666667   0.4583333  -0.3333333), wk =   0.0069444
        k(  404) = (   0.1666667   0.4583333  -0.2916667), wk =   0.0034722
        k(  405) = (   0.1666667  -0.5000000  -0.3333333), wk =   0.0017361
        k(  406) = (   0.2083333   0.4166667  -0.3750000), wk =   0.0034722
        k(  407) = (   0.2083333   0.4166667  -0.3333333), wk =   0.0069444
        k(  408) = (   0.2083333   0.4166667  -0.2916667), wk =   0.0034722
        k(  409) = (   0.2083333   0.4583333  -0.3333333), wk =   0.0034722
        k(  410) = (   0.2083333   0.4583333  -0.2916667), wk =   0.0069444
        k(  411) = (   0.2083333   0.4583333  -0.2500000), wk =   0.0034722
        k(  412) = (   0.2083333  -0.5000000  -0.2916667), wk =   0.0017361
        k(  413) = (   0.2500000  -0.5000000  -0.2500000), wk =   0.0008681

     Dense  grid:     2085 G-vectors     FFT dimensions: (  18,  18,  18)

     Dynamical RAM for                 wfc:       0.00 MB

     Dynamical RAM for     wfc (w. buffer):       0.00 MB

     Dynamical RAM for           str. fact:       0.00 MB

     Dynamical RAM for           local pot:       0.00 MB

     Dynamical RAM for          nlocal pot:       0.00 MB

     Dynamical RAM for                qrad:       0.05 MB

     Dynamical RAM for          rho,v,vnew:       0.02 MB

     Dynamical RAM for           G-vectors:       0.01 MB

     Dynamical RAM for          h,s,v(r/c):       0.00 MB

     Dynamical RAM for          <psi|beta>:       0.00 MB

     Dynamical RAM for                 psi:       0.01 MB

     Dynamical RAM for                hpsi:       0.01 MB

     Dynamical RAM for      wfcinit/wfcrot:       0.01 MB

     Estimated static dynamical RAM per process >       0.13 MB

     Estimated max dynamical RAM per process >       0.14 MB

     Estimated total dynamical RAM >      11.88 MB

     The potential is recalculated from file :
     run_output/Silicon.save/charge-density

     Starting wfcs are    8 randomized atomic wfcs +    2 random wfcs

     Band Structure Calculation
     Davidson diagonalization with overlap

     Computing kpt #:     1  of    59 on this pool
     total cpu time spent up to now is        0.4 secs

     Computing kpt #:     2  of    59 on this pool
     total cpu time spent up to now is        0.4 secs

     Computing kpt #:     3  of    59 on this pool
     total cpu time spent up to now is        0.5 secs

     Computing kpt #:     4  of    59 on this pool
     total cpu time spent up to now is        0.5 secs

     Computing kpt #:     5  of    59 on this pool
     total cpu time spent up to now is        0.6 secs

     Computing kpt #:     6  of    59 on this pool
     total cpu time spent up to now is        0.6 secs

     Computing kpt #:     7  of    59 on this pool
     total cpu time spent up to now is        0.6 secs

     Computing kpt #:     8  of    59 on this pool
     total cpu time spent up to now is        0.7 secs

     Computing kpt #:     9  of    59 on this pool
     total cpu time spent up to now is        0.8 secs

     Computing kpt #:    10  of    59 on this pool
     total cpu time spent up to now is        0.8 secs

     Computing kpt #:    11  of    59 on this pool
     total cpu time spent up to now is        0.8 secs

     Computing kpt #:    12  of    59 on this pool
     total cpu time spent up to now is        0.9 secs

[...]
     0.0000   0.0000

          k = 0.5833-0.2500 0.8333 (   254 PWs)   bands (ev):

    -2.7945  -0.3077   2.5015   3.7980   9.0553  10.1758  11.8390  13.1545
    14.5735  17.1305

     occupation numbers 
     1.0000   1.0000   1.0000   1.0000   0.0000   0.0000   0.0000   0.0000
     0.0000   0.0000

          k = 0.5417-0.2083 0.7917 (   255 PWs)   bands (ev):

    -2.6286  -0.5196   2.4312   3.7887   9.1562  10.0366  12.6213  13.1341
    13.7174  17.3653

     occupation numbers 
     1.0000   1.0000   1.0000   1.0000   0.0000   0.0000   0.0000   0.0000
     0.0000   0.0000

          k = 0.5000-0.1667 0.7500 (   255 PWs)   bands (ev):

    -2.6705  -0.4652   2.3946   3.8392   9.2872   9.9217  12.7833  13.1077
    13.5781  16.8154

     occupation numbers 
     1.0000   1.0000   1.0000   1.0000   0.0000   0.0000   0.0000   0.0000
     0.0000   0.0000

          k = 0.4583-0.1250 0.7083 (   257 PWs)   bands (ev):

    -2.8962  -0.1746   2.3987   3.9439   9.4506   9.8270  12.0336  13.0815
    14.4321  16.1063

     occupation numbers 
     1.0000   1.0000   1.0000   1.0000   0.0000   0.0000   0.0000   0.0000
     0.0000   0.0000

          k = 0.4167-0.0833 0.6667 (   258 PWs)   bands (ev):

    -3.2048   0.2427   2.4578   4.0945   9.6366   9.7410  11.3456  13.0227
    15.3205  15.4469

     occupation numbers 
     1.0000   1.0000   1.0000   1.0000   0.0000   0.0000   0.0000   0.0000
     0.0000   0.0000

          k = 0.3750-0.0417 0.6250 (   257 PWs)   bands (ev):

    -3.5309   0.7036   2.5953   4.2790   9.5913   9.8655  10.8073  12.8822
    14.8983  16.1995

     occupation numbers 
     1.0000   1.0000   1.0000   1.0000   0.0000   0.0000   0.0000   0.0000
     0.0000   0.0000

          k = 0.3333 0.0000 0.5833 (   260 PWs)   bands (ev):

    -3.8474   1.1432   2.8404   4.4786   9.3307  10.0850  10.5116  12.5934
    14.5727  16.9314

     occupation numbers 
     1.0000   1.0000   1.0000   1.0000   0.0000   0.0000   0.0000   0.0000
     0.0000   0.0000

          k =-0.2500 0.6667 0.0000 (   257 PWs)   bands (ev):

    -3.5961   0.9286   3.0067   3.8675   8.3563   9.3319  11.5273  13.5736
    15.8344  17.3083

     occupation numbers 
     1.0000   1.0000   1.0000   1.0000   0.0000   0.0000   0.0000   0.0000
     0.0000   0.0000

          k = 0.7083-0.2917 0.9583 (   255 PWs)   bands (ev):

    -3.2817   0.5147   2.7405   3.6912   8.5997   9.5822  11.3480  13.8634
    16.2077  16.4877

     occupation numbers 
     1.0000   1.0000   1.0000   1.0000   0.0000   0.0000   0.0000   0.0000
     0.0000   0.0000

          k = 0.6667-0.2500 0.9167 (   256 PWs)   bands (ev):

    -2.9551   0.0957   2.5177   3.5634   8.7180  10.0903  11.1812  13.9802
    15.5803  16.7766

     occupation numbers 
     1.0000   1.0000   1.0000   1.0000   0.0000   0.0000   0.0000   0.0000
     0.0000   0.0000

          k = 0.6250-0.2083 0.8750 (   255 PWs)   bands (ev):

    -2.6463  -0.2802   2.3348   3.5014   8.8032  10.6290  11.1581  13.9991
    14.6645  17.4266

     occupation numbers 
     1.0000   1.0000   1.0000   1.0000   0.0000   0.0000   0.0000   0.0000
     0.0000   0.0000

          k = 0.5833-0.1667 0.8333 (   257 PWs)   bands (ev):

    -2.4297  -0.5359   2.1931   3.5059   8.9016  10.6986  11.7083  13.7453
    14.0039  17.5334

     occupation numbers 
     1.0000   1.0000   1.0000   1.0000   0.0000   0.0000   0.0000   0.0000
     0.0000   0.0000

          k = 0.5417-0.1250 0.7917 (   258 PWs)   bands (ev):

    -2.4082  -0.5583   2.1021   3.5728   9.0355  10.5957  12.4428  12.9739
    13.9492  16.8513

     occupation numbers 
     1.0000   1.0000   1.0000   1.0000   0.0000   0.0000   0.0000   0.0000
     0.0000   0.0000

          k = 0.5000-0.0833 0.7500 (   256 PWs)   bands (ev):

    -2.5943  -0.3355   2.0747   3.6941   9.2037  10.4820  12.0481  13.4392
    13.8964  16.1219

     occupation numbers 
     1.0000   1.0000   1.0000   1.0000   0.0000   0.0000   0.0000   0.0000
     0.0000   0.0000

          k = 0.4583-0.0417 0.7083 (   257 PWs)   bands (ev):

    -2.8922   0.0106   2.1294   3.8603   9.4056  10.3375  11.3821  13.6801
    14.4117  15.4888

     occupation numbers 
     1.0000   1.0000   1.0000   1.0000   0.0000   0.0000   0.0000   0.0000
     0.0000   0.0000

          k = 0.4167-0.0000 0.6667 (   256 PWs)   bands (ev):

    -3.2158   0.3768   2.2954   4.0605   9.6285  10.0535  10.9479  13.3781
    15.0695  15.3283

     occupation numbers 
     1.0000   1.0000   1.0000   1.0000   0.0000   0.0000   0.0000   0.0000
     0.0000   0.0000

          k = 0.7500-0.2500 1.0000 (   253 PWs)   bands (ev):

    -3.1147   0.3529   2.8459   3.4666   8.2355   8.9379  12.1498  14.4301
    16.6694  16.6752

     occupation numbers 
     1.0000   1.0000   1.0000   1.0000   0.0000   0.0000   0.0000   0.0000
     0.0000   0.0000

          k = 0.7083-0.2083 0.9583 (   253 PWs)   bands (ev):

    -2.7911  -0.0161   2.5906   3.3100   8.4733   9.2803  11.9650  14.7213
    15.7314  17.0812

     occupation numbers 
     1.0000   1.0000   1.0000   1.0000   0.0000   0.0000   0.0000   0.0000
     0.0000   0.0000

          k = 0.6667-0.1667 0.9167 (   256 PWs)   bands (ev):

    -2.4714  -0.3674   2.3369   3.2437   8.5781   9.8921  11.7888  14.6944
    14.9179  17.6281

     occupation numbers 
     1.0000   1.0000   1.0000   1.0000   0.0000   0.0000   0.0000   0.0000
     0.0000   0.0000

          k = 0.6250-0.1250 0.8750 (   258 PWs)   bands (ev):

    -2.2136  -0.6394   2.1186   3.2574   8.6790  10.5991  11.6605  13.8410
    14.8509  17.5840

     occupation numbers 
     1.0000   1.0000   1.0000   1.0000   0.0000   0.0000   0.0000   0.0000
     0.0000   0.0000

          k = 0.5833-0.0833 0.8333 (   261 PWs)   bands (ev):

    -2.1338  -0.7194   1.9635   3.3353   8.8084  11.1465  11.7728  12.9815
    14.7797  16.8813

     occupation numbers 
     1.0000   1.0000   1.0000   1.0000   0.0000   0.0000   0.0000   0.0000
     0.0000   0.0000

          k = 0.5417-0.0417 0.7917 (   259 PWs)   bands (ev):

    -2.2889  -0.5511   1.8968   3.4687   8.9749  11.1545  12.0909  12.5894
    14.6252  16.1957

     occupation numbers 
     1.0000   1.0000   1.0000   1.0000   0.0000   0.0000   0.0000   0.0000
     0.0000   0.0000

          k = 0.5000 0.0000 0.7500 (   262 PWs)   bands (ev):

    -2.5769  -0.2717   1.9436   3.6460   9.1766  10.8871  11.5799  13.4144
    14.2992  15.7049

     occupation numbers 
     1.0000   1.0000   1.0000   1.0000   0.0000   0.0000   0.0000   0.0000
     0.0000   0.0000

          k = 0.7500-0.1667 1.0000 (   251 PWs)   bands (ev):

    -2.5906  -0.2414   2.7522   3.1512   8.1758   8.6288  12.8144  15.2512
    15.9378  17.4703

     occupation numbers 
     1.0000   1.0000   1.0000   1.0000   0.0000   0.0000   0.0000   0.0000
     0.0000   0.0000

          k = 0.7083-0.1250 0.9583 (   254 PWs)   bands (ev):

    -2.2660  -0.5685   2.4994   3.0385   8.3890   9.0729  12.6307  14.8738
    15.6437  17.7604

     occupation numbers 
     1.0000   1.0000   1.0000   1.0000   0.0000   0.0000   0.0000   0.0000
     0.0000   0.0000

          k = 0.6667-0.0833 0.9167 (   257 PWs)   bands (ev):

    -1.9773  -0.8470   2.2190   3.0519   8.4938   9.7694  12.4547  13.9583
    15.6931  17.5590

     occupation numbers 
     1.0000   1.0000   1.0000   1.0000   0.0000   0.0000   0.0000   0.0000
     0.0000   0.0000

          k = 0.6250-0.0417 0.8750 (   260 PWs)   bands (ev):

    -1.8577  -0.9510   1.9962   3.1381   8.6177  10.5449  12.3048  13.0766
    15.5905  16.9305

     occupation numbers 
     1.0000   1.0000   1.0000   1.0000   0.0000   0.0000   0.0000   0.0000
     0.0000   0.0000

          k = 0.5833 0.0000 0.8333 (   262 PWs)   bands (ev):

    -2.0089  -0.7980   1.8771   3.2804   8.7751  11.2715  12.1697  12.3690
    15.2482  16.4260

     occupation numbers 
     1.0000   1.0000   1.0000   1.0000   0.0000   0.0000   0.0000   0.0000
     0.0000   0.0000

          k = 0.7500-0.0833 1.0000 (   253 PWs)   bands (ev):

    -2.0342  -0.8463   2.7306   2.9248   8.1765   8.4002  13.5209  15.0306
    16.2298  17.7695

     occupation numbers 
     1.0000   1.0000   1.0000   1.0000   0.0000   0.0000   0.0000   0.0000
     0.0000   0.0000

          k = 0.7083-0.0417 0.9583 (   258 PWs)   bands (ev):

    -1.7257  -1.1282   2.4600   2.8936   8.3470   8.9649  13.3395  14.1015
    16.4646  17.4086

     occupation numbers 
     1.0000   1.0000   1.0000   1.0000   0.0000   0.0000   0.0000   0.0000
     0.0000   0.0000

          k = 0.6667-0.0000 0.9167 (   262 PWs)   bands (ev):

    -1.6317  -1.1913   2.1771   2.9871   8.4618   9.7257  13.0868  13.2769
    16.2561  17.0455

     occupation numbers 
     1.0000   1.0000   1.0000   1.0000   0.0000   0.0000   0.0000   0.0000
     0.0000   0.0000

          k =-0.2500-1.0000 0.0000 (   254 PWs)   bands (ev):

    -1.4492  -1.4492   2.7868   2.7868   8.2482   8.2482  14.2679  14.2679
    17.0686  17.0686

     occupation numbers 
     1.0000   1.0000   1.0000   1.0000   0.0000   0.0000   0.0000   0.0000
     0.0000   0.0000

          k = 0.6667-0.3333 1.0000 (   260 PWs)   bands (ev):

    -3.4290   0.6660   2.6294   3.9466   9.1642  10.0121  10.6185  13.4849
    15.4701  16.3289

     occupation numbers 
     1.0000   1.0000   1.0000   1.0000   0.0000   0.0000   0.0000   0.0000
     0.0000   0.0000

          k = 0.6250-0.2917 0.9583 (   256 PWs)   bands (ev):

    -3.1032   0.2720   2.4100   3.7522   9.4234  10.1680  10.6192  13.7889
    15.4310  15.8557

     occupation numbers 
     1.0000   1.0000   1.0000   1.0000   0.0000   0.0000   0.0000   0.0000
     0.0000   0.0000

          k = 0.5833-0.2500 0.9167 (   257 PWs)   bands (ev):

    -2.7830  -0.1207   2.2755   3.5957   9.5360  10.0986  11.1185  13.9245
    14.5053  16.4482

     occupation numbers 
     1.0000   1.0000   1.0000   1.0000   0.0000   0.0000   0.0000   0.0000
     0.0000   0.0000

          k = 0.5417-0.2083 0.8750 (   256 PWs)   bands (ev):

    -2.5174  -0.4372   2.2058   3.4952   9.6094   9.9741  11.8374  13.5971
    13.9788  17.1347

     occupation numbers 
     1.0000   1.0000   1.0000   1.0000   0.0000   0.0000   0.0000   0.0000
     0.0000   0.0000

          k = 0.5000-0.1667 0.8333 (   258 PWs)   bands (ev):

    -2.4053  -0.5710   2.1829   3.4602   9.6446   9.9107  12.4670  12.9131
    13.9896  17.6069

     occupation numbers 
     1.0000   1.0000   1.0000   1.0000   0.0000   0.0000   0.0000   0.0000
     0.0000   0.0000

          k = 0.6667-0.2500 1.0000 (   255 PWs)   bands (ev):

    -2.9649   0.1781   2.4886   3.4626   9.0478   9.6647  11.1584  14.3884
    15.5589  16.3842

     occupation numbers 
     1.0000   1.0000   1.0000   1.0000   0.0000   0.0000   0.0000   0.0000
     0.0000   0.0000

          k = 0.6250-0.2083 0.9583 (   254 PWs)   bands (ev):

    -2.6386  -0.1707   2.2956   3.2842   9.2966  10.0668  11.0031  14.6051
    14.7043  16.8038

     occupation numbers 
     1.0000   1.0000   1.0000   1.0000   0.0000   0.0000   0.0000   0.0000
     0.0000   0.0000

          k = 0.5833-0.1667 0.9167 (   258 PWs)   bands (ev):

    -2.3472  -0.4881   2.1536   3.1789   9.4051  10.4968  11.0863  13.6765
    14.8265  17.3857

     occupation numbers 
     1.0000   1.0000   1.0000   1.0000   0.0000   0.0000   0.0000   0.0000
     0.0000   0.0000

          k = 0.5417-0.1250 0.8750 (   261 PWs)   bands (ev):

    -2.1736  -0.6735   2.0607   3.1569   9.5169  10.4896  11.7093  12.8074
    14.8500  17.6771

     occupation numbers 
     1.0000   1.0000   1.0000   1.0000   0.0000   0.0000   0.0000   0.0000
     0.0000   0.0000

          k = 0.5000-0.0833 0.8333 (   260 PWs)   bands (ev):

    -2.2273  -0.6133   2.0229   3.2150   9.6522  10.3824  11.8473  12.6768
    14.8045  17.1282

     occupation numbers 
     1.0000   1.0000   1.0000   1.0000   0.0000   0.0000   0.0000   0.0000
     0.0000   0.0000

          k = 0.4583-0.0417 0.7917 (   258 PWs)   bands (ev):

    -2.4687  -0.3563   2.0559   3.3430   9.8138  10.2455  11.1655  13.5376
    14.6620  16.4975

     occupation numbers 
     1.0000   1.0000   1.0000   1.0000   0.0000   0.0000   0.0000   0.0000
     0.0000   0.0000

          k = 0.4167-0.0000 0.7500 (   254 PWs)   bands (ev):

    -2.7810  -0.0344   2.1794   3.5285   9.9430   9.9969  10.7166  14.3082
    14.5038  16.0512

     occupation numbers 
     1.0000   1.0000   1.0000   1.0000   0.0000   0.0000   0.0000   0.0000
     0.0000   0.0000

          k = 0.6667-0.1667 1.0000 (   249 PWs)   bands (ev):

    -2.4624  -0.3307   2.4232   3.0593   8.9878   9.3876  11.7715  14.7330
    15.3098  17.2469

     occupation numbers 
     1.0000   1.0000   1.0000   1.0000   0.0000   0.0000   0.0000   0.0000
     0.0000   0.0000

          k = 0.6250-0.1250 0.9583 (   255 PWs)   bands (ev):

    -2.1521  -0.6342   2.2519   2.9168   9.2094   9.9084  11.5986  13.7892
    15.6089  17.5748

     occupation numbers 
     1.0000   1.0000   1.0000   1.0000   0.0000   0.0000   0.0000   0.0000
     0.0000   0.0000

          k = 0.5833-0.0833 0.9167 (   258 PWs)   bands (ev):

    -1.9244  -0.8546   2.0900   2.8985   9.3267  10.6004  11.4911  12.8843
    15.6909  17.6312

     occupation numbers 
     1.0000   1.0000   1.0000   1.0000   0.0000   0.0000   0.0000   0.0000
     0.0000   0.0000

          k = 0.5417-0.0417 0.8750 (   258 PWs)   bands (ev):

    -1.9323  -0.8383   1.9799   2.9788   9.4663  10.9889  11.7034  12.1211
    15.5942  17.1455

     occupation numbers 
     1.0000   1.0000   1.0000   1.0000   0.0000   0.0000   0.0000   0.0000
     0.0000   0.0000

          k = 0.5000 0.0000 0.8333 (   259 PWs)   bands (ev):

    -2.1635  -0.6217   1.9598   3.1327   9.6366  10.8074  11.3653  12.6242
    15.2611  16.7052

     occupation numbers 
     1.0000   1.0000   1.0000   1.0000   0.0000   0.0000   0.0000   0.0000
     0.0000   0.0000

          k = 0.6667-0.0833 1.0000 (   254 PWs)   bands (ev):

    -1.9417  -0.8626   2.4394   2.7516   8.9828   9.1792  12.4404  13.9353
    16.2036  17.6612

     occupation numbers 
     1.0000   1.0000   1.0000   1.0000   0.0000   0.0000   0.0000   0.0000
     0.0000   0.0000

          k = 0.6250-0.0417 0.9583 (   259 PWs)   bands (ev):

    -1.6712  -1.1070   2.2627   2.6926   9.1668   9.8203  12.2664  13.0054
    16.4587  17.4422

     occupation numbers 
     1.0000   1.0000   1.0000   1.0000   0.0000   0.0000   0.0000   0.0000
     0.0000   0.0000

          k = 0.5833 0.0000 0.9167 (   260 PWs)   bands (ev):

    -1.6801  -1.0800   2.0716   2.7973   9.2971  10.5927  12.0797  12.2053
    16.2309  17.2161

     occupation numbers 
     1.0000   1.0000   1.0000   1.0000   0.0000   0.0000   0.0000   0.0000
     0.0000   0.0000

          k =-0.3333-1.0000 0.0000 (   258 PWs)   bands (ev):

    -1.4055  -1.4055   2.5457   2.5457   9.0437   9.0437  13.1613  13.1613
    17.0657  17.0657

     occupation numbers 
     1.0000   1.0000   1.0000   1.0000   0.0000   0.0000   0.0000   0.0000
     0.0000   0.0000

          k = 0.5833-0.1667 1.0000 (   258 PWs)   bands (ev):

    -2.3206  -0.4617   2.1481   3.0516   9.8782  10.1175  10.8888  13.6440
    15.2761  16.9844

     occupation numbers 
     1.0000   1.0000   1.0000   1.0000   0.0000   0.0000   0.0000   0.0000
     0.0000   0.0000

          k = 0.5417-0.1250 0.9583 (   259 PWs)   bands (ev):

    -2.0372  -0.7318   2.0710   2.8959  10.0429  10.3964  11.0911  12.7347
    15.5998  17.3661

     occupation numbers 
     1.0000   1.0000   1.0000   1.0000   0.0000   0.0000   0.0000   0.0000
     0.0000   0.0000

          k = 0.5000-0.0833 0.9167 (   258 PWs)   bands (ev):

    -1.9053  -0.8563   2.0481   2.8409  10.0655  10.4420  11.6014  12.0701
    15.6920  17.6609

     occupation numbers 
     1.0000   1.0000   1.0000   1.0000   0.0000   0.0000   0.0000   0.0000
     0.0000   0.0000

          k = 0.5833-0.0833 1.0000 (   258 PWs)   bands (ev):

    -1.8452  -0.9069   2.2141   2.6638   9.8703  10.0125  11.4357  12.8488
    16.2071  17.5311

     occupation numbers 
     1.0000   1.0000   1.0000   1.0000   0.0000   0.0000   0.0000   0.0000
     0.0000   0.0000

          k = 0.5417-0.0417 0.9583 (   258 PWs)   bands (ev):

    -1.6364  -1.0934   2.1604   2.5785  10.0368  10.6135  11.3747  11.9946
    16.4583  17.4648

     occupation numbers 
     1.0000   1.0000   1.0000   1.0000   0.0000   0.0000   0.0000   0.0000
     0.0000   0.0000

          k = 0.5000-0.0000 0.9167 (   259 PWs)   bands (ev):

    -1.7555  -0.9794   2.0854   2.6809  10.1509  10.7388  11.2606  11.9013
    16.2181  17.3822

     occupation numbers 
     1.0000   1.0000   1.0000   1.0000   0.0000   0.0000   0.0000   0.0000
     0.0000   0.0000

          k =-0.4167-1.0000 0.0000 (   258 PWs)   bands (ev):

    -1.3698  -1.3698   2.3836   2.3836   9.9147   9.9147  12.1085  12.1085
    17.0690  17.0690

     occupation numbers 
     1.0000   1.0000   1.0000   1.0000   0.0000   0.0000   0.0000   0.0000
     0.0000   0.0000

          k =-0.5000-1.0000 0.0000 (   264 PWs)   bands (ev):

    -1.3614  -1.3614   2.3258   2.3258  10.5679  10.5679  11.3862  11.3862
    17.0670  17.0670

     occupation numbers 
     1.0000   1.0000   1.0000   1.0000   0.0000   0.0000   0.0000   0.0000
     0.0000   0.0000

     highest occupied, lowest unoccupied level (ev):     6.3154    6.8204

     Writing output data file run_output/Silicon.save/

     init_run     :      0.08s CPU      0.11s WALL (       1 calls)
     electrons    :      2.51s CPU      2.61s WALL (       1 calls)

     Called by init_run:
     wfcinit      :      0.00s CPU      0.00s WALL (       1 calls)
     wfcinit:atom :      0.00s CPU      0.00s WALL (      59 calls)
     wfcinit:wfcr :      0.10s CPU      0.10s WALL (      59 calls)
     potinit      :      0.00s CPU      0.00s WALL (       1 calls)
     hinit0       :      0.01s CPU      0.01s WALL (       1 calls)

     Called by electrons:
     c_bands      :      2.50s CPU      2.57s WALL (       1 calls)
     v_of_rho     :      0.00s CPU      0.00s WALL (       1 calls)
     v_h          :      0.00s CPU      0.00s WALL (       1 calls)
     v_xc         :      0.00s CPU      0.00s WALL (       1 calls)

     Called by c_bands:
     init_us_2    :      0.00s CPU      0.00s WALL (      59 calls)
     cegterg      :      1.88s CPU      1.94s WALL (      75 calls)

     Called by sum_band:

     Called by *egterg:
     cdiaghg      :      1.09s CPU      1.12s WALL (    1171 calls)
     cegterg:over :      0.19s CPU      0.20s WALL (    1112 calls)
     cegterg:upda :      0.05s CPU      0.05s WALL (    1112 calls)
     cegterg:last :      0.05s CPU      0.06s WALL (     625 calls)
     cdiaghg:chol :      0.07s CPU      0.08s WALL (    1171 calls)
     cdiaghg:inve :      0.05s CPU      0.06s WALL (    1171 calls)
     cdiaghg:para :      0.07s CPU      0.08s WALL (    2342 calls)
     h_psi        :      0.56s CPU      0.58s WALL (    1246 calls)
     g_psi        :      0.00s CPU      0.00s WALL (    1112 calls)

     Called by h_psi:
     h_psi:calbec :      0.02s CPU      0.03s WALL (    1246 calls)
     vloc_psi     :      0.53s CPU      0.54s WALL (    1246 calls)
     add_vuspsi   :      0.01s CPU      0.01s WALL (    1246 calls)

     General routines
     calbec       :      0.02s CPU      0.02s WALL (    1246 calls)
     fft          :      0.00s CPU      0.00s WALL (       3 calls)
     fftw         :      0.46s CPU      0.47s WALL (   13868 calls)
     davcio       :      0.00s CPU      0.00s WALL (     118 calls)

     Parallel routines
     fft_scatt_xy :      0.05s CPU      0.05s WALL (   13871 calls)
     fft_scatt_yz :      0.21s CPU      0.22s WALL (   13871 calls)

     PWSCF        :      2.90s CPU      3.58s WALL


   This run was terminated on:  15:34:53  20Jul2022            

=------------------------------------------------------------------------------=
   JOB DONE.
=------------------------------------------------------------------------------=
