
     Program PWSCF v.6.7MaX starts on 13Oct2021 at 15:58:53 

     This program is part of the open-source Quantum ESPRESSO suite
     for quantum simulation of materials; please cite
         "P. Giannozzi et al., J. Phys.:Condens. Matter 21 395502 (2009);
         "P. Giannozzi et al., J. Phys.:Condens. Matter 29 465901 (2017);
          URL http://www.quantum-espresso.org", 
     in publications or presentations arising from this work. More details at
     http://www.quantum-espresso.org/quote

     Parallel version (MPI), running on    56 processors

     MPI processes distributed on     2 nodes
     K-points division:     npool     =       7
     R & G space division:  proc/nbgrp/npool/nimage =       8
     Waiting for input...
     Reading input from standard input

     Current dimensions of program PWSCF are:
     Max number of different atomic species (ntypx) = 10
     Max number of k-points (npk) =  40000
     Max angular momentum in pseudopotentials (lmaxx) =  3

     Atomic positions and unit cell read from directory:
     run_output/hBN_2D.save/
     Atomic positions from file used, from input discarded


     Subspace diagonalization in iterative solution of the eigenvalue problem:
     one sub-group per band group will be used
     scalapack distributed-memory algorithm (size of sub-group:  2*  2 procs)


     Parallelization info
     --------------------
     sticks:   dense  smooth     PW     G-vecs:    dense   smooth      PW
     Min          31      31     10                 2719     2719     510
     Max          32      32     11                 2731     2731     525
     Sum         253     253     85                21817    21817    4131



     bravais-lattice index     =            4
     lattice parameter (alat)  =       4.7160  a.u.
     unit-cell volume          =     635.8432 (a.u.)^3
     number of atoms/cell      =            2
     number of atomic types    =            2
     number of electrons       =         8.00
     number of Kohn-Sham states=           20
     kinetic-energy cutoff     =      40.0000  Ry
     charge density cutoff     =     160.0000  Ry
     Exchange-correlation=  SLA  PZ   NOGX NOGC
                           (   1   1   0   0   0   0   0)

     celldm(1)=   4.716000  celldm(2)=   0.000000  celldm(3)=   7.000000
     celldm(4)=   0.000000  celldm(5)=   0.000000  celldm(6)=   0.000000

     crystal axes: (cart. coord. in units of alat)
               a(1) = (   1.000000   0.000000   0.000000 )  
               a(2) = (  -0.500000   0.866025   0.000000 )  
               a(3) = (   0.000000   0.000000   7.000000 )  

     reciprocal axes: (cart. coord. in units 2 pi/alat)
               b(1) = (  1.000000  0.577350 -0.000000 )  
               b(2) = (  0.000000  1.154701  0.000000 )  
               b(3) = (  0.000000 -0.000000  0.142857 )  


     PseudoPot. # 1 for B  read from file:
     PPs/B.pz-vbc.UPF
     MD5 check sum: b59596b5d63edeea6a2b3a0beace49c5
     Pseudo is Norm-conserving, Zval =  3.0
     Generated by new atomic code, or converted to UPF format
     Using radial grid of  157 points,  1 beta functions with: 
                l(1) =   0

     PseudoPot. # 2 for N  read from file:
     PPs/N.pz-vbc.UPF
     MD5 check sum: f7a51f6f78412844d17f6e69b370b417
     Pseudo is Norm-conserving, Zval =  5.0
     Generated by new atomic code, or converted to UPF format
     Using radial grid of  161 points,  1 beta functions with: 
                l(1) =   0

     atomic species   valence    mass     pseudopotential
        B              3.00    10.00000     B ( 1.00)
        N              5.00    14.00000     N ( 1.00)

     12 Sym. Ops. (no inversion) found


                                    s                        frac. trans.

      isym =  1     identity                                     

 cryst.   s( 1) = (     1          0          0      )
                  (     0          1          0      )
                  (     0          0          1      )

 cart.    s( 1) = (  1.0000000  0.0000000  0.0000000 )
                  (  0.0000000  1.0000000  0.0000000 )
                  (  0.0000000  0.0000000  1.0000000 )


      isym =  2     180 deg rotation - cart. axis [0,1,0]        

 cryst.   s( 2) = (    -1          0          0      )
                  (     1          1          0      )
                  (     0          0         -1      )

 cart.    s( 2) = ( -1.0000000  0.0000000  0.0000000 )
                  (  0.0000000  1.0000000  0.0000000 )
                  (  0.0000000  0.0000000 -1.0000000 )


      isym =  3     120 deg rotation - cryst. axis [0,0,1]       

 cryst.   s( 3) = (     0          1          0      )
                  (    -1         -1          0      )
                  (     0          0          1      )

 cart.    s( 3) = ( -0.5000000 -0.8660254  0.0000000 )
                  (  0.8660254 -0.5000000  0.0000000 )
                  (  0.0000000  0.0000000  1.0000000 )


      isym =  4     120 deg rotation - cryst. axis [0,0,-1]      

 cryst.   s( 4) = (    -1         -1          0      )
                  (     1          0          0      )
                  (     0          0          1      )

 cart.    s( 4) = ( -0.5000000  0.8660254  0.0000000 )
                  ( -0.8660254 -0.5000000  0.0000000 )
                  (  0.0000000  0.0000000  1.0000000 )


      isym =  5     180 deg rotation - cryst. axis [1,-1,0]      

 cryst.   s( 5) = (     0         -1          0      )
                  (    -1          0          0      )
                  (     0          0         -1      )

 cart.    s( 5) = (  0.5000000 -0.8660254  0.0000000 )
                  ( -0.8660254 -0.5000000  0.0000000 )
                  (  0.0000000  0.0000000 -1.0000000 )


      isym =  6     180 deg rotation - cryst. axis [2,1,0]       

 cryst.   s( 6) = (     1          1          0      )
                  (     0         -1          0      )
                  (     0          0         -1      )

 cart.    s( 6) = (  0.5000000  0.8660254  0.0000000 )
                  (  0.8660254 -0.5000000  0.0000000 )
                  (  0.0000000  0.0000000 -1.0000000 )


      isym =  7     inv. 180 deg rotation - cart. axis [0,0,1]   

 cryst.   s( 7) = (     1          0          0      )
                  (     0          1          0      )
                  (     0          0         -1      )

 cart.    s( 7) = (  1.0000000  0.0000000  0.0000000 )
                  (  0.0000000  1.0000000  0.0000000 )
                  (  0.0000000  0.0000000 -1.0000000 )


      isym =  8     inv. 180 deg rotation - cart. axis [1,0,0]   

 cryst.   s( 8) = (    -1          0          0      )
                  (     1          1          0      )
                  (     0          0          1      )

 cart.    s( 8) = ( -1.0000000  0.0000000  0.0000000 )
                  (  0.0000000  1.0000000  0.0000000 )
                  (  0.0000000  0.0000000  1.0000000 )


      isym =  9     inv.  60 deg rotation - cryst. axis [0,0,1]  

 cryst.   s( 9) = (    -1         -1          0      )
                  (     1          0          0      )
                  (     0          0         -1      )

 cart.    s( 9) = ( -0.5000000  0.8660254  0.0000000 )
                  ( -0.8660254 -0.5000000  0.0000000 )
                  (  0.0000000  0.0000000 -1.0000000 )


      isym = 10     inv.  60 deg rotation - cryst. axis [0,0,-1] 

 cryst.   s(10) = (     0          1          0      )
                  (    -1         -1          0      )
                  (     0          0         -1      )

 cart.    s(10) = ( -0.5000000 -0.8660254  0.0000000 )
                  (  0.8660254 -0.5000000  0.0000000 )
                  (  0.0000000  0.0000000 -1.0000000 )


      isym = 11     inv. 180 deg rotation - cryst. axis [0,1,0]  

 cryst.   s(11) = (     1          1          0      )
                  (     0         -1          0      )
                  (     0          0          1      )

 cart.    s(11) = (  0.5000000  0.8660254  0.0000000 )
                  (  0.8660254 -0.5000000  0.0000000 )
                  (  0.0000000  0.0000000  1.0000000 )


      isym = 12     inv. 180 deg rotation - cryst. axis [1,1,0]  

 cryst.   s(12) = (     0         -1          0      )
                  (    -1          0          0      )
                  (     0          0          1      )

 cart.    s(12) = (  0.5000000 -0.8660254  0.0000000 )
                  ( -0.8660254 -0.5000000  0.0000000 )
                  (  0.0000000  0.0000000  1.0000000 )


     point group D_3h (-62m)
     there are  6 classes
     the character table:

       E     2C3   3C2   s_h   2S3   3s_v 
A'_1   1.00  1.00  1.00  1.00  1.00  1.00
A'_2   1.00  1.00 -1.00  1.00  1.00 -1.00
E'     2.00 -1.00  0.00  2.00 -1.00  0.00
A''1   1.00  1.00  1.00 -1.00 -1.00 -1.00
A''2   1.00  1.00 -1.00 -1.00 -1.00  1.00
E''    2.00 -1.00  0.00 -2.00  1.00  0.00

     the symmetry operations in each class and the name of the first element:

     E        1
          identity                                               
     2C3      3    4
          120 deg rotation - cryst. axis [0,0,1]                 
     3C2      2    6    5
          180 deg rotation - cart. axis [0,1,0]                  
     s_h      7
          inv. 180 deg rotation - cart. axis [0,0,1]             
     2S3      9   10
          inv.  60 deg rotation - cryst. axis [0,0,1]            
     3s_v     8   11   12
          inv. 180 deg rotation - cart. axis [1,0,0]             

   Cartesian axes

     site n.     atom                  positions (alat units)
         1           B   tau(   1) = (   0.5000001   0.2886751   0.0000000  )
         2           N   tau(   2) = (  -0.5000001  -0.2886751   0.0000000  )

   Crystallographic axes

     site n.     atom                  positions (cryst. coord.)
         1           B   tau(   1) = (  0.6666667  0.3333333  0.0000000  )
         2           N   tau(   2) = ( -0.6666667 -0.3333333  0.0000000  )

     number of k points=    61
                       cart. coord. in units 2pi/alat
        k(    1) = (   0.0000000   0.0000000   0.0000000), wk =   0.0034722
        k(    2) = (   0.0000000   0.0481125   0.0000000), wk =   0.0208333
        k(    3) = (   0.0000000   0.0962250   0.0000000), wk =   0.0208333
        k(    4) = (   0.0000000   0.1443376   0.0000000), wk =   0.0208333
        k(    5) = (   0.0000000   0.1924501   0.0000000), wk =   0.0208333
        k(    6) = (   0.0000000   0.2405626   0.0000000), wk =   0.0208333
        k(    7) = (   0.0000000   0.2886751   0.0000000), wk =   0.0208333
        k(    8) = (   0.0000000   0.3367877   0.0000000), wk =   0.0208333
        k(    9) = (   0.0000000   0.3849002   0.0000000), wk =   0.0208333
        k(   10) = (   0.0000000   0.4330127   0.0000000), wk =   0.0208333
        k(   11) = (   0.0000000   0.4811252   0.0000000), wk =   0.0208333
        k(   12) = (   0.0000000   0.5292377   0.0000000), wk =   0.0208333
        k(   13) = (   0.0000000  -0.5773503   0.0000000), wk =   0.0104167
        k(   14) = (   0.0416667   0.0721688   0.0000000), wk =   0.0208333
        k(   15) = (   0.0416667   0.1202813   0.0000000), wk =   0.0416667
        k(   16) = (   0.0416667   0.1683938   0.0000000), wk =   0.0416667
        k(   17) = (   0.0416667   0.2165064   0.0000000), wk =   0.0416667
        k(   18) = (   0.0416667   0.2646189   0.0000000), wk =   0.0416667
        k(   19) = (   0.0416667   0.3127314   0.0000000), wk =   0.0416667
        k(   20) = (   0.0416667   0.3608439   0.0000000), wk =   0.0416667
        k(   21) = (   0.0416667   0.4089564   0.0000000), wk =   0.0416667
        k(   22) = (   0.0416667   0.4570690   0.0000000), wk =   0.0416667
        k(   23) = (   0.0416667   0.5051815   0.0000000), wk =   0.0416667
        k(   24) = (   0.0416667   0.5532940   0.0000000), wk =   0.0416667
        k(   25) = (   0.0833333   0.1443376   0.0000000), wk =   0.0208333
        k(   26) = (   0.0833333   0.1924501   0.0000000), wk =   0.0416667
        k(   27) = (   0.0833333   0.2405626   0.0000000), wk =   0.0416667
        k(   28) = (   0.0833333   0.2886751   0.0000000), wk =   0.0416667
        k(   29) = (   0.0833333   0.3367877   0.0000000), wk =   0.0416667
        k(   30) = (   0.0833333   0.3849002   0.0000000), wk =   0.0416667
        k(   31) = (   0.0833333   0.4330127   0.0000000), wk =   0.0416667
        k(   32) = (   0.0833333   0.4811252   0.0000000), wk =   0.0416667
        k(   33) = (   0.0833333   0.5292377   0.0000000), wk =   0.0416667
        k(   34) = (   0.0833333   0.5773503   0.0000000), wk =   0.0208333
        k(   35) = (   0.1250000   0.2165064   0.0000000), wk =   0.0208333
        k(   36) = (   0.1250000   0.2646189   0.0000000), wk =   0.0416667
        k(   37) = (   0.1250000   0.3127314   0.0000000), wk =   0.0416667
        k(   38) = (   0.1250000   0.3608439   0.0000000), wk =   0.0416667
        k(   39) = (   0.1250000   0.4089564   0.0000000), wk =   0.0416667
        k(   40) = (   0.1250000   0.4570690   0.0000000), wk =   0.0416667
        k(   41) = (   0.1250000   0.5051815   0.0000000), wk =   0.0416667
        k(   42) = (   0.1250000   0.5532940   0.0000000), wk =   0.0416667
        k(   43) = (   0.1666667   0.2886751   0.0000000), wk =   0.0208333
        k(   44) = (   0.1666667   0.3367877   0.0000000), wk =   0.0416667
        k(   45) = (   0.1666667   0.3849002   0.0000000), wk =   0.0416667
        k(   46) = (   0.1666667   0.4330127   0.0000000), wk =   0.0416667
        k(   47) = (   0.1666667   0.4811252   0.0000000), wk =   0.0416667
        k(   48) = (   0.1666667   0.5292377   0.0000000), wk =   0.0416667
        k(   49) = (   0.1666667   0.5773503   0.0000000), wk =   0.0208333
        k(   50) = (   0.2083333   0.3608439   0.0000000), wk =   0.0208333
        k(   51) = (   0.2083333   0.4089564   0.0000000), wk =   0.0416667
        k(   52) = (   0.2083333   0.4570690   0.0000000), wk =   0.0416667
        k(   53) = (   0.2083333   0.5051815   0.0000000), wk =   0.0416667
        k(   54) = (   0.2083333   0.5532940   0.0000000), wk =   0.0416667
        k(   55) = (   0.2500000   0.4330127   0.0000000), wk =   0.0208333
        k(   56) = (   0.2500000   0.4811252   0.0000000), wk =   0.0416667
        k(   57) = (   0.2500000   0.5292377   0.0000000), wk =   0.0416667
        k(   58) = (   0.2500000   0.5773503   0.0000000), wk =   0.0208333
        k(   59) = (   0.2916667   0.5051815   0.0000000), wk =   0.0208333
        k(   60) = (   0.2916667   0.5532940   0.0000000), wk =   0.0416667
        k(   61) = (   0.3333333   0.5773503   0.0000000), wk =   0.0069444

                       cryst. coord.
        k(    1) = (   0.0000000   0.0000000   0.0000000), wk =   0.0034722
        k(    2) = (   0.0000000   0.0416667   0.0000000), wk =   0.0208333
        k(    3) = (   0.0000000   0.0833333   0.0000000), wk =   0.0208333
        k(    4) = (   0.0000000   0.1250000   0.0000000), wk =   0.0208333
        k(    5) = (   0.0000000   0.1666667   0.0000000), wk =   0.0208333
        k(    6) = (   0.0000000   0.2083333   0.0000000), wk =   0.0208333
        k(    7) = (   0.0000000   0.2500000   0.0000000), wk =   0.0208333
        k(    8) = (   0.0000000   0.2916667   0.0000000), wk =   0.0208333
        k(    9) = (   0.0000000   0.3333333   0.0000000), wk =   0.0208333
        k(   10) = (   0.0000000   0.3750000   0.0000000), wk =   0.0208333
        k(   11) = (   0.0000000   0.4166667   0.0000000), wk =   0.0208333
        k(   12) = (   0.0000000   0.4583333   0.0000000), wk =   0.0208333
        k(   13) = (   0.0000000  -0.5000000   0.0000000), wk =   0.0104167
        k(   14) = (   0.0416667   0.0416667   0.0000000), wk =   0.0208333
        k(   15) = (   0.0416667   0.0833333   0.0000000), wk =   0.0416667
        k(   16) = (   0.0416667   0.1250000   0.0000000), wk =   0.0416667
        k(   17) = (   0.0416667   0.1666667   0.0000000), wk =   0.0416667
        k(   18) = (   0.0416667   0.2083333   0.0000000), wk =   0.0416667
        k(   19) = (   0.0416667   0.2500000   0.0000000), wk =   0.0416667
        k(   20) = (   0.0416667   0.2916667   0.0000000), wk =   0.0416667
        k(   21) = (   0.0416667   0.3333333   0.0000000), wk =   0.0416667
        k(   22) = (   0.0416667   0.3750000   0.0000000), wk =   0.0416667
        k(   23) = (   0.0416667   0.4166667   0.0000000), wk =   0.0416667
        k(   24) = (   0.0416667   0.4583333   0.0000000), wk =   0.0416667
        k(   25) = (   0.0833333   0.0833333   0.0000000), wk =   0.0208333
        k(   26) = (   0.0833333   0.1250000   0.0000000), wk =   0.0416667
        k(   27) = (   0.0833333   0.1666667   0.0000000), wk =   0.0416667
        k(   28) = (   0.0833333   0.2083333   0.0000000), wk =   0.0416667
        k(   29) = (   0.0833333   0.2500000   0.0000000), wk =   0.0416667
        k(   30) = (   0.0833333   0.2916667   0.0000000), wk =   0.0416667
        k(   31) = (   0.0833333   0.3333333   0.0000000), wk =   0.0416667
        k(   32) = (   0.0833333   0.3750000   0.0000000), wk =   0.0416667
        k(   33) = (   0.0833333   0.4166667   0.0000000), wk =   0.0416667
        k(   34) = (   0.0833333   0.4583333   0.0000000), wk =   0.0208333
        k(   35) = (   0.1250000   0.1250000   0.0000000), wk =   0.0208333
        k(   36) = (   0.1250000   0.1666667   0.0000000), wk =   0.0416667
        k(   37) = (   0.1250000   0.2083333   0.0000000), wk =   0.0416667
        k(   38) = (   0.1250000   0.2500000   0.0000000), wk =   0.0416667
        k(   39) = (   0.1250000   0.2916667   0.0000000), wk =   0.0416667
        k(   40) = (   0.1250000   0.3333333   0.0000000), wk =   0.0416667
        k(   41) = (   0.1250000   0.3750000   0.0000000), wk =   0.0416667
        k(   42) = (   0.1250000   0.4166667   0.0000000), wk =   0.0416667
        k(   43) = (   0.1666667   0.1666667   0.0000000), wk =   0.0208333
        k(   44) = (   0.1666667   0.2083333   0.0000000), wk =   0.0416667
        k(   45) = (   0.1666667   0.2500000   0.0000000), wk =   0.0416667
        k(   46) = (   0.1666667   0.2916667   0.0000000), wk =   0.0416667
        k(   47) = (   0.1666667   0.3333333   0.0000000), wk =   0.0416667
        k(   48) = (   0.1666667   0.3750000   0.0000000), wk =   0.0416667
        k(   49) = (   0.1666667   0.4166667   0.0000000), wk =   0.0208333
        k(   50) = (   0.2083333   0.2083333   0.0000000), wk =   0.0208333
        k(   51) = (   0.2083333   0.2500000   0.0000000), wk =   0.0416667
        k(   52) = (   0.2083333   0.2916667   0.0000000), wk =   0.0416667
        k(   53) = (   0.2083333   0.3333333   0.0000000), wk =   0.0416667
        k(   54) = (   0.2083333   0.3750000   0.0000000), wk =   0.0416667
        k(   55) = (   0.2500000   0.2500000   0.0000000), wk =   0.0208333
        k(   56) = (   0.2500000   0.2916667   0.0000000), wk =   0.0416667
        k(   57) = (   0.2500000   0.3333333   0.0000000), wk =   0.0416667
        k(   58) = (   0.2500000   0.3750000   0.0000000), wk =   0.0208333
        k(   59) = (   0.2916667   0.2916667   0.0000000), wk =   0.0208333
        k(   60) = (   0.2916667   0.3333333   0.0000000), wk =   0.0416667
        k(   61) = (   0.3333333   0.3333333   0.0000000), wk =   0.0069444

     Dense  grid:    21817 G-vectors     FFT dimensions: (  20,  20, 135)

     Dynamical RAM for                 wfc:       0.10 MB

     Dynamical RAM for     wfc (w. buffer):       0.10 MB

     Dynamical RAM for           str. fact:       0.08 MB

     Dynamical RAM for           local pot:       0.00 MB

     Dynamical RAM for          nlocal pot:       0.01 MB

     Dynamical RAM for                qrad:       0.02 MB

     Dynamical RAM for          rho,v,vnew:       0.28 MB

     Dynamical RAM for           G-vectors:       0.18 MB

     Dynamical RAM for          h,s,v(r/c):       0.07 MB

     Dynamical RAM for          <psi|beta>:       0.00 MB

     Dynamical RAM for                 psi:       0.41 MB

     Dynamical RAM for                hpsi:       0.41 MB

     Dynamical RAM for      wfcinit/wfcrot:       0.22 MB

     Estimated static dynamical RAM per process >       1.06 MB

     Estimated max dynamical RAM per process >       1.96 MB

     Estimated total dynamical RAM >     109.76 MB

     The potential is recalculated from file :
     run_output/hBN_2D.save/charge-density

     Starting wfcs are    8 randomized atomic wfcs +   12 random wfcs

     Band Structure Calculation
     Davidson diagonalization with overlap

     Computing kpt #:     1  of     9 on this pool
     total cpu time spent up to now is        0.4 secs

     Computing kpt #:     2  of     9 on this pool
     total cpu time spent up to now is        0.6 secs

     Computing kpt #:     3  of     9 on this pool
     total cpu time spent up to now is        0.7 secs

     Computing kpt #:     4  of     9 on this pool
     total cpu time spent up to now is        0.9 secs

     Computing kpt #:     5  of     9 on this pool
     total cpu time spent up to now is        1.0 secs

     Computing kpt #:     6  of     9 on this pool
     total cpu time spent up to now is        1.2 secs

     Computing kpt #:     7  of     9 on this pool
     total cpu time spent up to now is        1.3 secs

     Computing kpt #:     8  of     9 on this pool
     total cpu time spent up to now is        1.4 secs

     Computing kpt #:     9  of     9 on this pool
     total cpu time spent up to now is        1.6 secs

     ethr =  1.00E-06,  avg # of iterations = 14.1

     total cpu time spent up to now is        1.6 secs

     End of band structure calculation

          k = 0.0000 0.0000 0.0000 (  2731 PWs)   bands (ev):

   -22.1162  -9.4685  -5.3071  -5.3071   0.6556   1.8007   2.0624   3.3654
     3.8276   6.0487   6.5993   7.4779   7.4779   8.9384   9.3230  11.1015
    12.0110  15.4826  16.7702  21.0437

     occupation numbers 
     1.0000   1.0000   1.0000   1.0000   0.0000   0.0000   0.0000   0.0000
     0.0000   0.0000   0.0000   0.0000   0.0000   0.0000   0.0000   0.0000
     0.0000   0.0000   0.0000   0.0000

          k = 0.0000 0.0481 0.0000 (  2739 PWs)   bands (ev):

   -22.0832  -9.4196  -5.4725  -5.3884   0.7157   1.8545   2.1188   3.4181
     3.8854   6.0922   6.6534   7.4493   7.6343   8.9022   9.4290  11.0893
    12.0851  15.5154  16.8321  21.1512

     occupation numbers 
     1.0000   1.0000   1.0000   1.0000   0.0000   0.0000   0.0000   0.0000
     0.0000   0.0000   0.0000   0.0000   0.0000   0.0000   0.0000   0.0000
     0.0000   0.0000   0.0000   0.0000

          k = 0.0000 0.0962 0.0000 (  2727 PWs)   bands (ev):

   -21.9822  -9.2787  -5.8941  -5.5887   0.8926   2.0145   2.2875   3.5747
     4.0569   6.2148   6.7898   7.4239   8.0940   8.7699   9.7293  11.0847
    12.3027  15.6156  17.0135  21.1182

     occupation numbers 
     1.0000   1.0000   1.0000   1.0000   0.0000   0.0000   0.0000   0.0000
     0.0000   0.0000   0.0000   0.0000   0.0000   0.0000   0.0000   0.0000
     0.0000   0.0000   0.0000   0.0000

          k = 0.0000 0.1443 0.0000 (  2732 PWs)   bands (ev):

   -21.8170  -9.0543  -6.5522  -5.8932   1.1779   2.2776   2.5675   3.8299
     4.3365   6.3819   6.8973   7.5104   8.4996   8.8218  10.1804  11.1586
    12.6495  15.7843  17.3037  20.8151

     occupation numbers 
     1.0000   1.0000   1.0000   1.0000   0.0000   0.0000   0.0000   0.0000
     0.0000   0.0000   0.0000   0.0000   0.0000   0.0000   0.0000   0.0000
     0.0000   0.0000   0.0000   0.0000

          k = 0.0000 0.1925 0.0000 (  2724 PWs)   bands (ev):

   -21.5877  -8.7363  -7.3625  -6.2477   1.5656   2.6407   2.9580   4.1762
     4.7175   6.5022   6.8765   7.8263   8.1984   9.7838  10.7424  11.3685
    13.1046  16.0078  17.6878  19.9923

     occupation numbers 
     1.0000   1.0000   1.0000   1.0000   0.0000   0.0000   0.0000   0.0000
     0.0000   0.0000   0.0000   0.0000   0.0000   0.0000   0.0000   0.0000
     0.0000   0.0000   0.0000   0.0000

          k = 0.0000 0.2406 0.0000 (  2694 PWs)   bands (ev):

   -21.2981  -8.3290  -8.2500  -6.6100   2.0517   3.0897   3.4581   4.5801
     5.1880   6.3741   6.8119   8.1500   8.3152  10.9196  11.3872  11.7167
    13.6387  16.2247  18.1400  19.0345

     occupation numbers 
     1.0000   1.0000   1.0000   1.0000   0.0000   0.0000   0.0000   0.0000
     0.0000   0.0000   0.0000   0.0000   0.0000   0.0000   0.0000   0.0000
     0.0000   0.0000   0.0000   0.0000

          k = 0.0000 0.2887 0.0000 (  2694 PWs)   bands (ev):

   -20.9586  -9.1901  -7.8538  -6.9838   2.6298   3.5544   4.0663   4.8773
     5.7092   6.1086   6.7987   8.4849   8.9215  12.0659  12.1771  12.1783
    14.1880  16.2478  18.3449  18.4906

     occupation numbers 
     1.0000   1.0000   1.0000   1.0000   0.0000   0.0000   0.0000   0.0000
     0.0000   0.0000   0.0000   0.0000   0.0000   0.0000   0.0000   0.0000
     0.0000   0.0000   0.0000   0.0000

          k = 0.0000 0.3368 0.0000 (  2700 PWs)   bands (ev):

   -20.5773 -10.1339  -7.3349  -7.3066   3.2900   3.6724   4.7787   4.9862
     6.1350   6.3800   7.0176   9.0612   9.6311  12.7079  12.7125  13.5051
    14.6326  15.8494  17.5489  17.9421

     occupation numbers 
     1.0000   1.0000   1.0000   1.0000   0.0000   0.0000   0.0000   0.0000
     0.0000   0.0000   0.0000   0.0000   0.0000   0.0000   0.0000   0.0000
     0.0000   0.0000   0.0000   0.0000

          k = 0.0000 0.3849 0.0000 (  2722 PWs)   bands (ev):

   -20.1737 -11.0274  -7.6487  -6.7179   3.0519   4.0086   5.5494   5.5774
     6.3493   7.0669   7.6350   9.7787  10.4314  13.0350  13.2122  14.8293
    14.8394  15.1674  16.1967  16.7948

     occupation numbers 
     1.0000   1.0000   1.0000   1.0000   0.0000   0.0000   0.0000   0.0000
     0.0000   0.0000   0.0000   0.0000   0.0000   0.0000   0.0000   0.0000
     0.0000   0.0000   0.0000   0.0000

          k = 0.0000 0.4330 0.0000 (  2736 PWs)   bands (ev):

   -19.7702 -11.8220  -7.9159  -6.1017   2.2029   4.7139   6.2915   6.3940
     6.7511   7.9297   8.4944  10.5853  11.2782  12.5345  13.2564  14.5157
    14.5664  15.1683  15.5607  16.1121

     occupation numbers 
     1.0000   1.0000   1.0000   1.0000   0.0000   0.0000   0.0000   0.0000
     0.0000   0.0000   0.0000   0.0000   0.0000   0.0000   0.0000   0.0000
     0.0000   0.0000   0.0000   0.0000

          k = 0.0000 0.4811 0.0000 (  2724 PWs)   bands (ev):

   -19.4063 -12.4639  -8.0872  -5.5198   1.4111   5.2313   6.8309   7.3771
     7.6975   8.9056   9.4879  11.1957  11.3484  12.4664  12.4860  12.9921
    13.8067  14.5180  15.0736  16.0887

     occupation numbers 
     1.0000   1.0000   1.0000   1.0000   0.0000   0.0000   0.0000   0.0000
     0.0000   0.0000   0.0000   0.0000   0.0000   0.0000   0.0000   0.0000
     0.0000   0.0000   0.0000   0.0000

          k = 0.0000 0.5292 0.0000 (  2720 PWs)   bands (ev):

   -19.1457 -12.8885  -8.1975  -5.0817   0.8212   5.4575   7.6572   8.4498
     8.8367   9.9260   9.9477  10.6770  11.0004  11.4935  12.2453  12.9679
    13.0920  13.6187  14.7182  15.8134

     occupation numbers 
     1.0000   1.0000   1.0000   1.0000   0.0000   0.0000   0.0000   0.0000
     0.0000   0.0000   0.0000   0.0000   0.0000   0.0000   0.0000   0.0000
     0.0000   0.0000   0.0000   0.0000

          k = 0.0000-0.5774 0.0000 (  2736 PWs)   bands (ev):

   -19.0515 -13.0504  -8.2436  -4.9131   0.5964   5.5097   8.4971   9.0024
     9.3362   9.9344  10.0843  10.1454  10.9923  11.5082  11.7368  11.9969
    13.2664  14.3165  14.4060  15.0055

     occupation numbers 
     1.0000   1.0000   1.0000   1.0000   0.0000   0.0000   0.0000   0.0000
     0.0000   0.0000   0.0000   0.0000   0.0000   0.0000   0.0000   0.0000
     0.0000   0.0000   0.0000   0.0000

          k = 0.0417 0.0722 0.0000 (  2733 PWs)   bands (ev):

   -22.0159  -9.3256  -5.7503  -5.5335   0.8344   1.9612   2.2313   3.5226
     4.0003   6.1748   6.7554   7.4285   7.9276   8.8153   9.6362  11.0808
    12.2313  15.5819  16.9537  21.1373

     occupation numbers 
     1.0000   1.0000   1.0000   1.0000   0.0000   0.0000   0.0000   0.0000
     0.0000   0.0000   0.0000   0.0000   0.0000   0.0000   0.0000   0.0000
     0.0000   0.0000   0.0000   0.0000

          k = 0.0417 0.1203 0.0000 (  2725 PWs)   bands (ev):

   -21.8825  -9.1415  -6.2764  -5.7920   1.0655   2.1729   2.4557   3.7287
     4.2264   6.3211   6.9173   7.4477   8.4769   8.6068  10.0324  11.1182
    12.5157  15.7171  17.1896  20.9559

     occupation numbers 
     1.0000   1.0000   1.0000   1.0000   0.0000   0.0000   0.0000   0.0000
     0.0000   0.0000   0.0000   0.0000   0.0000   0.0000   0.0000   0.0000
     0.0000   0.0000   0.0000   0.0000

          k = 0.0417 0.1684 0.0000 (  2706 PWs)   bands (ev):

   -21.6843  -8.8657  -6.9848  -6.1246   1.4029   2.4876   2.7912   4.0319
     4.5589   6.4798   6.9967   7.6470   8.3180   9.2285  10.5949  11.2693
    12.9264  15.9137  17.5275  20.2567

     occupation numbers 
     1.0000   1.0000   1.0000   1.0000   0.0000   0.0000   0.0000   0.0000
     0.0000   0.0000   0.0000   0.0000   0.0000   0.0000   0.0000   0.0000
     0.0000   0.0000   0.0000   0.0000

          k = 0.0417 0.2165 0.0000 (  2713 PWs)   bands (ev):

   -21.4262  -8.5093  -7.8351  -6.5176   1.8404   2.8939   3.2367   4.4098
     4.9893   6.4715   6.9589   8.0639   8.1236  10.1295  11.2898  11.5551
    13.4379  16.1304  17.9496  19.2583

     occupation numbers 
     1.0000   1.0000   1.0000   1.0000   0.0000   0.0000   0.0000   0.0000
     0.0000   0.0000   0.0000   0.0000   0.0000   0.0000   0.0000   0.0000
     0.0000   0.0000   0.0000   0.0000

          k = 0.0417 0.2646 0.0000 (  2695 PWs)   bands (ev):

   -21.1109  -8.7382  -8.0648  -6.8992   2.3748   3.3642   3.7914   4.7880
     5.5009   6.2051   6.9134   8.3024   8.6230  11.1032  11.9640  12.1273
    14.0172  16.2319  18.4053  18.4602

     occupation numbers 
     1.0000   1.0000   1.0000   1.0000   0.0000   0.0000   0.0000   0.0000
     0.0000   0.0000   0.0000   0.0000   0.0000   0.0000   0.0000   0.0000
     0.0000   0.0000   0.0000   0.0000

          k = 0.0417 0.3127 0.0000 (  2703 PWs)   bands (ev):

   -20.7500  -9.6750  -7.5569  -7.2676   2.9986   3.7204   4.4534   4.9207
     6.0278   6.1858   6.9637   8.7834   9.2873  12.0287  12.4609  13.1184
    14.5701  15.9685  18.1247  18.2177

     occupation numbers 
     1.0000   1.0000   1.0000   1.0000   0.0000   0.0000   0.0000   0.0000
     0.0000   0.0000   0.0000   0.0000   0.0000   0.0000   0.0000   0.0000
     0.0000   0.0000   0.0000   0.0000

          k = 0.0417 0.3608 0.0000 (  2717 PWs)   bands (ev):

   -20.3566 -10.5914  -7.6000  -6.9870   3.4115   3.6976   5.2162   5.2442
     6.3733   6.7283   7.3444   9.4374  10.0465  12.7330  12.9765  14.2435
    14.9092  15.4039  16.9525  17.4469

     occupation numbers 
     1.0000   1.0000   1.0000   1.0000   0.0000   0.0000   0.0000   0.0000
     0.0000   0.0000   0.0000   0.0000   0.0000   0.0000   0.0000   0.0000
     0.0000   0.0000   0.0000   0.0000

          k = 0.0417 0.4090 0.0000 (  2722 PWs)   bands (ev):

   -19.9489 -11.4278  -7.8857  -6.3790   2.6276   4.4375   5.9867   6.0375
     6.5867   7.5173   8.0891  10.2008  10.8845  12.8308  13.2845  14.8325
    14.9021  15.3946  15.5551  16.1003

     occupation numbers 
     1.0000   1.0000   1.0000   1.0000   0.0000   0.0000   0.0000   0.0000
     0.0000   0.0000   0.0000   0.0000   0.0000   0.0000   0.0000   0.0000
     0.0000   0.0000   0.0000   0.0000

          k = 0.0417 0.4571 0.0000 (  2726 PWs)   bands (ev):

   -19.5598 -12.1505  -8.1069  -5.7747   1.7902   5.1065   6.6319   6.9070
     7.2348   8.4390   9.0191  11.0040  11.5458  12.2659  12.8881  13.7880
    14.2612  15.0120  15.2334  15.9833

     occupation numbers 
     1.0000   1.0000   1.0000   1.0000   0.0000   0.0000   0.0000   0.0000
     0.0000   0.0000   0.0000   0.0000   0.0000   0.0000   0.0000   0.0000
     0.0000   0.0000   0.0000   0.0000

          k = 0.0417 0.5052 0.0000 (  2726 PWs)   bands (ev):

   -19.2412 -12.6913  -8.2572  -5.2517   1.0831   5.5087   7.2696   7.9372
     8.2940   9.4475  10.0313  10.6931  11.3785  12.2508  12.2890  12.9879
    13.2945  13.9317  14.8614  16.0946

     occupation numbers 
     1.0000   1.0000   1.0000   1.0000   0.0000   0.0000   0.0000   0.0000
     0.0000   0.0000   0.0000   0.0000   0.0000   0.0000   0.0000   0.0000
     0.0000   0.0000   0.0000   0.0000

          k = 0.0417 0.5533 0.0000 (  2723 PWs)   bands (ev):

   -19.0570 -12.9847  -8.3266  -4.9346   0.6598   5.6474   8.1881   9.0070
     9.3706   9.5644  10.1835  10.7851  10.8224  11.2877  11.8671  12.5466
    13.1146  14.1049  14.4450  15.3648

     occupation numbers 
     1.0000   1.0000   1.0000   1.0000   0.0000   0.0000   0.0000   0.0000
     0.0000   0.0000   0.0000   0.0000   0.0000   0.0000   0.0000   0.0000
     0.0000   0.0000   0.0000   0.0000

          k = 0.0833 0.1443 0.0000 (  2711 PWs)   bands (ev):

   -21.7170  -8.9115  -6.8349  -6.1247   1.3489   2.4353   2.7357   3.9819
     4.5068   6.4596   7.1266   7.5484   8.3594   8.9620  10.5712  11.2389
    12.8699  15.8801  17.4735  20.2908

     occupation numbers 
     1.0000   1.0000   1.0000   1.0000   0.0000   0.0000   0.0000   0.0000
     0.0000   0.0000   0.0000   0.0000   0.0000   0.0000   0.0000   0.0000
     0.0000   0.0000   0.0000   0.0000

          k = 0.0833 0.1925 0.0000 (  2709 PWs)   bands (ev):

   -21.4896  -8.5971  -7.5580  -6.5234   1.7373   2.7946   3.1265   4.3203
     4.8932   6.5078   7.2532   7.8439   8.1474   9.5471  11.2886  11.4778
    13.3572  16.0678  17.8522  19.2431

     occupation numbers 
     1.0000   1.0000   1.0000   1.0000   0.0000   0.0000   0.0000   0.0000
     0.0000   0.0000   0.0000   0.0000   0.0000   0.0000   0.0000   0.0000
     0.0000   0.0000   0.0000   0.0000

          k = 0.0833 0.2406 0.0000 (  2705 PWs)   bands (ev):

   -21.2043  -8.3787  -8.1997  -6.9426   2.2263   3.2317   3.6273   4.6969
     5.3773   6.3058   7.2640   8.2182   8.3541  10.2615  11.8334  12.1143
    13.9617  16.1471  18.3022  18.3728

     occupation numbers 
     1.0000   1.0000   1.0000   1.0000   0.0000   0.0000   0.0000   0.0000
     0.0000   0.0000   0.0000   0.0000   0.0000   0.0000   0.0000   0.0000
     0.0000   0.0000   0.0000   0.0000

          k = 0.0833 0.2887 0.0000 (  2708 PWs)   bands (ev):

   -20.8673  -9.2667  -7.7244  -7.3459   2.8108   3.6592   4.2372   4.9258
     5.9386   6.1339   7.2592   8.6074   8.9891  11.0803  12.2788  12.9959
    14.6208  15.8650  18.0704  18.6556

     occupation numbers 
     1.0000   1.0000   1.0000   1.0000   0.0000   0.0000   0.0000   0.0000
     0.0000   0.0000   0.0000   0.0000   0.0000   0.0000   0.0000   0.0000
     0.0000   0.0000   0.0000   0.0000

          k = 0.0833 0.3368 0.0000 (  2713 PWs)   bands (ev):

   -20.4911 -10.1596  -7.7141  -7.1814   3.4834   3.6576   4.9540   5.0801
     6.4946   6.5054   7.3651   9.1913   9.7182  11.9181  12.7488  13.9201
    15.1627  15.3338  17.7168  18.0077

     occupation numbers 
     1.0000   1.0000   1.0000   1.0000   0.0000   0.0000   0.0000   0.0000
     0.0000   0.0000   0.0000   0.0000   0.0000   0.0000   0.0000   0.0000
     0.0000   0.0000   0.0000   0.0000

          k = 0.0833 0.3849 0.0000 (  2721 PWs)   bands (ev):

   -20.0898 -11.0113  -8.0341  -6.5949   3.0060   4.2291   5.6911   5.7694
     6.8223   7.2091   7.8430   9.8945  10.5278  12.5646  13.0704  14.8577
    14.9467  15.1822  16.4266  16.7231

     occupation numbers 
     1.0000   1.0000   1.0000   1.0000   0.0000   0.0000   0.0000   0.0000
     0.0000   0.0000   0.0000   0.0000   0.0000   0.0000   0.0000   0.0000
     0.0000   0.0000   0.0000   0.0000

          k = 0.0833 0.4330 0.0000 (  2724 PWs)   bands (ev):

   -19.6903 -11.7774  -8.2897  -5.9869   2.1827   5.0020   6.5388   6.6124
     7.0711   8.0674   8.6647  10.6549  11.3559  12.5256  12.9753  14.5860
    14.6734  15.1216  15.5697  15.8746

     occupation numbers 
     1.0000   1.0000   1.0000   1.0000   0.0000   0.0000   0.0000   0.0000
     0.0000   0.0000   0.0000   0.0000   0.0000   0.0000   0.0000   0.0000
     0.0000   0.0000   0.0000   0.0000

          k = 0.0833 0.4811 0.0000 (  2732 PWs)   bands (ev):

   -19.3342 -12.4014  -8.4847  -5.4192   1.4076   5.6613   7.1575   7.5112
     7.8761   9.0247   9.6445  11.2780  11.2825  12.5378  12.6186  13.1519
    13.7533  14.5682  15.0099  15.9995

     occupation numbers 
     1.0000   1.0000   1.0000   1.0000   0.0000   0.0000   0.0000   0.0000
     0.0000   0.0000   0.0000   0.0000   0.0000   0.0000   0.0000   0.0000
     0.0000   0.0000   0.0000   0.0000

          k = 0.0833 0.5292 0.0000 (  2732 PWs)   bands (ev):

   -19.0780 -12.8158  -8.6012  -4.9883   0.8340   6.0066   7.8665   8.5531
     9.0025   9.9885  10.0840  10.8424  11.0496  11.6567  12.2310  13.0911
    13.2118  13.7723  14.4850  15.8138

     occupation numbers 
     1.0000   1.0000   1.0000   1.0000   0.0000   0.0000   0.0000   0.0000
     0.0000   0.0000   0.0000   0.0000   0.0000   0.0000   0.0000   0.0000
     0.0000   0.0000   0.0000   0.0000

          k = 0.0833 0.5774 0.0000 (  2722 PWs)   bands (ev):

   -18.9830 -12.9655  -8.6329  -4.8075   0.6214   6.0917   8.6343   9.1979
     9.3416  10.0740  10.2480  10.3141  11.0431  11.6437  11.8797  12.1608
    13.1115  14.4308  14.4987  15.1527

     occupation numbers 
     1.0000   1.0000   1.0000   1.0000   0.0000   0.0000   0.0000   0.0000
     0.0000   0.0000   0.0000   0.0000   0.0000   0.0000   0.0000   0.0000
     0.0000   0.0000   0.0000   0.0000

          k = 0.1250 0.2165 0.0000 (  2707 PWs)   bands (ev):

   -21.2357  -8.2402  -8.2301  -6.9934   2.1774   3.1872   3.5727   4.6641
     5.3353   6.3489   7.5587   8.1508   8.1978   9.9119  11.7905  12.1039
    13.9504  16.1093  18.2641  18.3122

     occupation numbers 
     1.0000   1.0000   1.0000   1.0000   0.0000   0.0000   0.0000   0.0000
     0.0000   0.0000   0.0000   0.0000   0.0000   0.0000   0.0000   0.0000
     0.0000   0.0000   0.0000   0.0000

          k = 0.1250 0.2646 0.0000 (  2713 PWs)   bands (ev):

   -20.9273  -8.9885  -7.8103  -7.4655   2.7186   3.6053   4.1292   4.9248
     5.8771   6.1471   7.7291   8.5247   8.6811  10.4332  12.1842  12.9333
    14.6711  15.7529  17.9763  18.7179

     occupation numbers 
     1.0000   1.0000   1.0000   1.0000   0.0000   0.0000   0.0000   0.0000
     0.0000   0.0000   0.0000   0.0000   0.0000   0.0000   0.0000   0.0000
     0.0000   0.0000   0.0000   0.0000

          k = 0.1250 0.3127 0.0000 (  2721 PWs)   bands (ev):

   -20.5740  -9.8021  -7.9014  -7.3041   3.3553   3.7698   4.7949   5.0272
     6.3891   6.4985   7.8050   9.0440   9.3811  11.1083  12.5912  13.7587
    15.1526  15.3794  18.1530  18.5309

     occupation numbers 
     1.0000   1.0000   1.0000   1.0000   0.0000   0.0000   0.0000   0.0000
     0.0000   0.0000   0.0000   0.0000   0.0000   0.0000   0.0000   0.0000
     0.0000   0.0000   0.0000   0.0000

          k = 0.1250 0.3608 0.0000 (  2723 PWs)   bands (ev):

   -20.1879 -10.6118  -8.2765  -6.7446   3.2945   4.0818   5.5069   5.5677
     7.0069   7.1183   7.9467   9.6825  10.1777  11.8541  12.8313  14.6030
    14.8163  15.6503  17.3487  17.5384

     occupation numbers 
     1.0000   1.0000   1.0000   1.0000   0.0000   0.0000   0.0000   0.0000
     0.0000   0.0000   0.0000   0.0000   0.0000   0.0000   0.0000   0.0000
     0.0000   0.0000   0.0000   0.0000

          k = 0.1250 0.4090 0.0000 (  2720 PWs)   bands (ev):

   -19.7884 -11.3814  -8.5805  -6.1449   2.5365   4.8806   6.2763   6.4391
     7.4769   7.7975   8.4685  10.3738  11.0163  12.4348  12.7518  14.9388
    14.9809  15.5125  15.8911  16.0715

     occupation numbers 
     1.0000   1.0000   1.0000   1.0000   0.0000   0.0000   0.0000   0.0000
     0.0000   0.0000   0.0000   0.0000   0.0000   0.0000   0.0000   0.0000
     0.0000   0.0000   0.0000   0.0000

          k = 0.1250 0.4571 0.0000 (  2713 PWs)   bands (ev):

   -19.4111 -12.0466  -8.8124  -5.5515   1.7546   5.7018   7.1835   7.3220
     7.7436   8.6908   9.3445  10.9683  11.5847  12.5591  12.6232  14.0562
    14.3059  14.8274  15.4750  16.1973

     occupation numbers 
     1.0000   1.0000   1.0000   1.0000   0.0000   0.0000   0.0000   0.0000
     0.0000   0.0000   0.0000   0.0000   0.0000   0.0000   0.0000   0.0000
     0.0000   0.0000   0.0000   0.0000

          k = 0.1250 0.5052 0.0000 (  2724 PWs)   bands (ev):

   -19.1046 -12.5557  -8.9785  -5.0482   1.0895   6.3870   7.8396   8.1642
     8.6370   9.6161  10.3113  10.9641  11.1666  12.5309  12.5649  13.2593
    13.3980  14.1659  14.5944  15.8253

     occupation numbers 
     1.0000   1.0000   1.0000   1.0000   0.0000   0.0000   0.0000   0.0000
     0.0000   0.0000   0.0000   0.0000   0.0000   0.0000   0.0000   0.0000
     0.0000   0.0000   0.0000   0.0000

          k = 0.1250 0.5533 0.0000 (  2721 PWs)   bands (ev):

   -18.9281 -12.8323  -9.0584  -4.7308   0.6945   6.7053   8.5392   9.0690
     9.6871   9.9146  10.2448  11.0564  11.1482  11.6026  11.9548  12.8339
    13.0840  14.3421  14.4622  15.5348

     occupation numbers 
     1.0000   1.0000   1.0000   1.0000   0.0000   0.0000   0.0000   0.0000
     0.0000   0.0000   0.0000   0.0000   0.0000   0.0000   0.0000   0.0000
     0.0000   0.0000   0.0000   0.0000

          k = 0.1667 0.2887 0.0000 (  2717 PWs)   bands (ev):

   -20.6017  -9.6507  -7.9935  -7.3430   3.3125   3.7994   4.7416   5.0213
     6.3556   6.4797   8.1986   8.9953   9.1001  10.7762  12.5352  13.7090
    15.0700  15.4606  18.1444  19.0599

     occupation numbers 
     1.0000   1.0000   1.0000   1.0000   0.0000   0.0000   0.0000   0.0000
     0.0000   0.0000   0.0000   0.0000   0.0000   0.0000   0.0000   0.0000
     0.0000   0.0000   0.0000   0.0000

          k = 0.1667 0.3368 0.0000 (  2719 PWs)   bands (ev):

   -20.2369 -10.3426  -8.4786  -6.8143   3.4532   4.0042   5.4227   5.4634
     6.9081   7.1689   8.4725   9.5741   9.7503  11.3192  12.6819  14.4844
    14.6891  16.0331  18.1696  18.2592

     occupation numbers 
     1.0000   1.0000   1.0000   1.0000   0.0000   0.0000   0.0000   0.0000
     0.0000   0.0000   0.0000   0.0000   0.0000   0.0000   0.0000   0.0000
     0.0000   0.0000   0.0000   0.0000

          k = 0.1667 0.3849 0.0000 (  2719 PWs)   bands (ev):

   -19.8507 -11.0374  -8.8790  -6.2434   2.7841   4.7854   6.1200   6.2928
     7.6333   7.8744   8.6616  10.1887  10.5655  11.9910  12.5101  14.9090
    15.2645  15.6774  16.9486  16.9570

     occupation numbers 
     1.0000   1.0000   1.0000   1.0000   0.0000   0.0000   0.0000   0.0000
     0.0000   0.0000   0.0000   0.0000   0.0000   0.0000   0.0000   0.0000
     0.0000   0.0000   0.0000   0.0000

          k = 0.1667 0.4330 0.0000 (  2716 PWs)   bands (ev):

   -19.4688 -11.6904  -9.1905  -5.6512   2.0470   5.6388   6.9594   7.2222
     8.2940   8.4570   9.1928  10.6802  11.3400  12.4494  12.5976  14.6623
    15.0579  15.3875  15.8053  16.1447

     occupation numbers 
     1.0000   1.0000   1.0000   1.0000   0.0000   0.0000   0.0000   0.0000
     0.0000   0.0000   0.0000   0.0000   0.0000   0.0000   0.0000   0.0000
     0.0000   0.0000   0.0000   0.0000

          k = 0.1667 0.4811 0.0000 (  2716 PWs)   bands (ev):

   -19.1307 -12.2350  -9.4106  -5.1036   1.3572   6.5149   7.8645   8.1590
     8.5485   9.3026  10.0986  10.9226  11.4666  12.7926  13.0701  13.6182
    13.8726  14.5424  15.2241  15.8553

     occupation numbers 
     1.0000   1.0000   1.0000   1.0000   0.0000   0.0000   0.0000   0.0000
     0.0000   0.0000   0.0000   0.0000   0.0000   0.0000   0.0000   0.0000
     0.0000   0.0000   0.0000   0.0000

          k = 0.1667 0.5292 0.0000 (  2715 PWs)   bands (ev):

   -18.8910 -12.5998  -9.5430  -4.6922   0.8458   7.2437   8.6152   8.6847
     9.5000  10.0273  10.4954  11.2189  11.3418  12.1437  12.3607  13.5077
    13.5328  14.2281  14.4027  15.5942

     occupation numbers 
     1.0000   1.0000   1.0000   1.0000   0.0000   0.0000   0.0000   0.0000
     0.0000   0.0000   0.0000   0.0000   0.0000   0.0000   0.0000   0.0000
     0.0000   0.0000   0.0000   0.0000

          k = 0.1667 0.5774 0.0000 (  2710 PWs)   bands (ev):

   -18.8029 -12.7295  -9.5899  -4.5227   0.6532   7.5070   9.0438   9.0443
     9.8273  10.5071  10.7378  10.8225  11.2188  12.0792  12.2958  12.6489
    12.9916  14.7237  14.8308  15.5473

     occupation numbers 
     1.0000   1.0000   1.0000   1.0000   0.0000   0.0000   0.0000   0.0000
     0.0000   0.0000   0.0000   0.0000   0.0000   0.0000   0.0000   0.0000
     0.0000   0.0000   0.0000   0.0000

          k = 0.2083 0.3608 0.0000 (  2727 PWs)   bands (ev):

   -19.8723 -10.8944  -9.0217  -6.2769   2.8765   4.7500   6.0683   6.2416
     7.5780   7.9306   9.0662  10.1234  10.1661  11.7887  12.4140  14.8732
    15.2191  16.1125  17.5084  17.6838

     occupation numbers 
     1.0000   1.0000   1.0000   1.0000   0.0000   0.0000   0.0000   0.0000
     0.0000   0.0000   0.0000   0.0000   0.0000   0.0000   0.0000   0.0000
     0.0000   0.0000   0.0000   0.0000

          k = 0.2083 0.4090 0.0000 (  2721 PWs)   bands (ev):

   -19.4992 -11.4340  -9.4643  -5.7094   2.2166   5.5846   6.8447   7.1276
     8.3348   8.7283   9.4093  10.5103  10.8247  12.3098  12.4586  15.2684
    15.3885  16.0240  16.4429  16.4620

     occupation numbers 
     1.0000   1.0000   1.0000   1.0000   0.0000   0.0000   0.0000   0.0000
     0.0000   0.0000   0.0000   0.0000   0.0000   0.0000   0.0000   0.0000
     0.0000   0.0000   0.0000   0.0000

          k = 0.2083 0.4571 0.0000 (  2720 PWs)   bands (ev):

   -19.1505 -11.9344  -9.8021  -5.1454   1.5646   6.4885   7.6695   8.1143
     9.0914   9.1990   9.9604  10.6823  11.4616  12.7559  13.1572  14.3199
    14.7664  14.9580  16.0010  16.2026

     occupation numbers 
     1.0000   1.0000   1.0000   1.0000   0.0000   0.0000   0.0000   0.0000
     0.0000   0.0000   0.0000   0.0000   0.0000   0.0000   0.0000   0.0000
     0.0000   0.0000   0.0000   0.0000

          k = 0.2083 0.5052 0.0000 (  2708 PWs)   bands (ev):

   -18.8694 -12.3229 -10.0141  -4.6645   1.0121   7.4125   8.3617   9.0847
     9.4165   9.7609  10.7942  11.1175  11.5205  13.0968  13.1563  13.7350
    13.8191  14.4631  14.8956  15.3566

     occupation numbers 
     1.0000   1.0000   1.0000   1.0000   0.0000   0.0000   0.0000   0.0000
     0.0000   0.0000   0.0000   0.0000   0.0000   0.0000   0.0000   0.0000
     0.0000   0.0000   0.0000   0.0000

          k = 0.2083 0.5533 0.0000 (  2702 PWs)   bands (ev):

   -18.7110 -12.5399 -10.1169  -4.3739   0.6832   8.1504   8.6665   9.3182
    10.3566  10.5581  10.6538  11.6458  11.7938  12.2267  12.3077  13.3672
    13.4498  14.7057  14.8715  15.3547

     occupation numbers 
     1.0000   1.0000   1.0000   1.0000   0.0000   0.0000   0.0000   0.0000
     0.0000   0.0000   0.0000   0.0000   0.0000   0.0000   0.0000   0.0000
     0.0000   0.0000   0.0000   0.0000

          k = 0.2500 0.4330 0.0000 (  2713 PWs)   bands (ev):

   -19.1572 -11.7871  -9.9654  -5.1673   1.6413   6.4686   7.6004   8.0697
     9.0159   9.6176   9.9669  10.5914  11.2166  12.7183  13.1750  14.6728
    15.5391  15.6358  16.0539  16.1208

     occupation numbers 
     1.0000   1.0000   1.0000   1.0000   0.0000   0.0000   0.0000   0.0000
     0.0000   0.0000   0.0000   0.0000   0.0000   0.0000   0.0000   0.0000
     0.0000   0.0000   0.0000   0.0000

          k = 0.2500 0.4811 0.0000 (  2712 PWs)   bands (ev):

   -18.8614 -12.0959 -10.3465  -4.6614   1.1212   7.4113   8.1710   9.1097
     9.6097   9.9912  10.6950  11.0131  11.7482  13.4479  13.7105  14.1643
    14.4525  14.5347  15.2566  15.5448

     occupation numbers 
     1.0000   1.0000   1.0000   1.0000   0.0000   0.0000   0.0000   0.0000
     0.0000   0.0000   0.0000   0.0000   0.0000   0.0000   0.0000   0.0000
     0.0000   0.0000   0.0000   0.0000

          k = 0.2500 0.5292 0.0000 (  2699 PWs)   bands (ev):

   -18.6560 -12.3110 -10.5657  -4.2807   0.7364   8.3386   8.3439   9.8817
    10.3198  10.4308  11.2128  11.8438  12.1575  12.9329  12.9862  13.8027
    14.2340  14.5747  14.7991  14.9268

     occupation numbers 
     1.0000   1.0000   1.0000   1.0000   0.0000   0.0000   0.0000   0.0000
     0.0000   0.0000   0.0000   0.0000   0.0000   0.0000   0.0000   0.0000
     0.0000   0.0000   0.0000   0.0000

          k = 0.2500 0.5774 0.0000 (  2696 PWs)   bands (ev):

   -18.5815 -12.3907 -10.6377  -4.1390   0.5899   8.3439   8.8984   9.7686
    10.9347  11.2731  11.5515  11.6693  11.8239  12.8494  12.9473  13.4217
    13.4624  14.3379  15.1657  15.2412

     occupation numbers 
     1.0000   1.0000   1.0000   1.0000   0.0000   0.0000   0.0000   0.0000
     0.0000   0.0000   0.0000   0.0000   0.0000   0.0000   0.0000   0.0000
     0.0000   0.0000   0.0000   0.0000

          k = 0.2917 0.5052 0.0000 (  2711 PWs)   bands (ev):

   -18.6385 -12.1930 -10.7776  -4.2488   0.7625   8.2145   8.3576  10.1278
    10.3776  10.3778  11.4244  11.8334  12.2649  13.5158  13.7958  14.0233
    14.2331  14.3281  14.6693  14.7954

     occupation numbers 
     1.0000   1.0000   1.0000   1.0000   0.0000   0.0000   0.0000   0.0000
     0.0000   0.0000   0.0000   0.0000   0.0000   0.0000   0.0000   0.0000
     0.0000   0.0000   0.0000   0.0000

          k = 0.2917 0.5533 0.0000 (  2701 PWs)   bands (ev):

   -18.5150 -12.2265 -11.0106  -4.0101   0.5531   8.1179   9.1615  10.2646
    11.3042  11.4006  11.5888  12.5599  12.7336  13.0511  13.0673  13.7289
    13.9341  13.9604  14.2967  14.5026

     occupation numbers 
     1.0000   1.0000   1.0000   1.0000   0.0000   0.0000   0.0000   0.0000
     0.0000   0.0000   0.0000   0.0000   0.0000   0.0000   0.0000   0.0000
     0.0000   0.0000   0.0000   0.0000

          k = 0.3333 0.5774 0.0000 (  2709 PWs)   bands (ev):

   -18.4664 -12.1698 -11.2001  -3.9154   0.4863   8.0199   9.4904  10.5613
    11.2264  12.2211  12.5880  12.6343  12.6927  12.7851  13.0535  13.6701
    13.8789  13.9158  13.9998  14.1839

     occupation numbers 
     1.0000   1.0000   1.0000   1.0000   0.0000   0.0000   0.0000   0.0000
     0.0000   0.0000   0.0000   0.0000   0.0000   0.0000   0.0000   0.0000
     0.0000   0.0000   0.0000   0.0000

     highest occupied, lowest unoccupied level (ev):    -3.9154    0.4863

     Writing output data file run_output/hBN_2D.save/

     init_run     :      0.05s CPU      0.07s WALL (       1 calls)
     electrons    :      1.26s CPU      1.31s WALL (       1 calls)

     Called by init_run:
     wfcinit      :      0.00s CPU      0.00s WALL (       1 calls)
     wfcinit:atom :      0.00s CPU      0.00s WALL (       9 calls)
     wfcinit:wfcr :      0.08s CPU      0.09s WALL (       9 calls)
     potinit      :      0.01s CPU      0.02s WALL (       1 calls)
     hinit0       :      0.01s CPU      0.01s WALL (       1 calls)

     Called by electrons:
     c_bands      :      1.26s CPU      1.29s WALL (       1 calls)
     v_of_rho     :      0.00s CPU      0.00s WALL (       1 calls)
     v_h          :      0.00s CPU      0.00s WALL (       1 calls)
     v_xc         :      0.00s CPU      0.00s WALL (       1 calls)

     Called by c_bands:
     init_us_2    :      0.00s CPU      0.00s WALL (       9 calls)
     cegterg      :      0.90s CPU      0.92s WALL (       9 calls)

     Called by sum_band:

     Called by *egterg:
     cdiaghg      :      0.19s CPU      0.19s WALL (     129 calls)
     cegterg:over :      0.04s CPU      0.04s WALL (     120 calls)
     cegterg:upda :      0.02s CPU      0.02s WALL (     120 calls)
     cegterg:last :      0.02s CPU      0.02s WALL (      27 calls)
     cdiaghg:chol :      0.02s CPU      0.02s WALL (     129 calls)
     cdiaghg:inve :      0.00s CPU      0.00s WALL (     129 calls)
     cdiaghg:para :      0.02s CPU      0.02s WALL (     258 calls)
     h_psi        :      0.69s CPU      0.71s WALL (     138 calls)
     g_psi        :      0.01s CPU      0.01s WALL (     120 calls)

     Called by h_psi:
     h_psi:calbec :      0.01s CPU      0.01s WALL (     138 calls)
     vloc_psi     :      0.68s CPU      0.70s WALL (     138 calls)
     add_vuspsi   :      0.00s CPU      0.00s WALL (     138 calls)

     General routines
     calbec       :      0.01s CPU      0.01s WALL (     138 calls)
     fft          :      0.00s CPU      0.00s WALL (       3 calls)
     fftw         :      0.56s CPU      0.58s WALL (    3218 calls)
     davcio       :      0.00s CPU      0.00s WALL (      18 calls)

     Parallel routines
     fft_scatt_xy :      0.10s CPU      0.10s WALL (    3221 calls)
     fft_scatt_yz :      0.12s CPU      0.13s WALL (    3221 calls)

     PWSCF        :      1.50s CPU      2.62s WALL


   This run was terminated on:  15:58:56  13Oct2021            

=------------------------------------------------------------------------------=
   JOB DONE.
=------------------------------------------------------------------------------=
