
     Program PWSCF v.6.7MaX starts on  6Oct2021 at 10:30:58 

     This program is part of the open-source Quantum ESPRESSO suite
     for quantum simulation of materials; please cite
         "P. Giannozzi et al., J. Phys.:Condens. Matter 21 395502 (2009);
         "P. Giannozzi et al., J. Phys.:Condens. Matter 29 465901 (2017);
          URL http://www.quantum-espresso.org", 
     in publications or presentations arising from this work. More details at
     http://www.quantum-espresso.org/quote

     Parallel version (MPI), running on    56 processors

     MPI processes distributed on     2 nodes
     K-points division:     npool     =       8
     R & G space division:  proc/nbgrp/npool/nimage =       7
     Waiting for input...
     Reading input from standard input

     Current dimensions of program PWSCF are:
     Max number of different atomic species (ntypx) = 10
     Max number of k-points (npk) =  40000
     Max angular momentum in pseudopotentials (lmaxx) =  3

     Subspace diagonalization in iterative solution of the eigenvalue problem:
     one sub-group per band group will be used
     scalapack distributed-memory algorithm (size of sub-group:  2*  2 procs)


     Parallelization info
     --------------------
     sticks:   dense  smooth     PW     G-vecs:    dense   smooth      PW
     Min          91      91     28                 1488     1488     261
     Max          91      91     29                 1489     1489     264
     Sum         637     637    199                10417    10417    1837



     bravais-lattice index     =            2
     lattice parameter (alat)  =      10.6959  a.u.
     unit-cell volume          =     305.9088 (a.u.)^3
     number of atoms/cell      =            2
     number of atomic types    =            2
     number of electrons       =         8.00
     number of Kohn-Sham states=            4
     kinetic-energy cutoff     =      40.0000  Ry
     charge density cutoff     =     160.0000  Ry
     scf convergence threshold =      1.0E-10
     mixing beta               =       0.7000
     number of iterations used =            8  plain     mixing
     Exchange-correlation= SLA  PZ   NOGX NOGC
                           (   1   1   0   0   0   0   0)

     celldm(1)=  10.695900  celldm(2)=   0.000000  celldm(3)=   0.000000
     celldm(4)=   0.000000  celldm(5)=   0.000000  celldm(6)=   0.000000

     crystal axes: (cart. coord. in units of alat)
               a(1) = (  -0.500000   0.000000   0.500000 )  
               a(2) = (   0.000000   0.500000   0.500000 )  
               a(3) = (  -0.500000   0.500000   0.000000 )  

     reciprocal axes: (cart. coord. in units 2 pi/alat)
               b(1) = ( -1.000000 -1.000000  1.000000 )  
               b(2) = (  1.000000  1.000000  1.000000 )  
               b(3) = ( -1.000000  1.000000 -1.000000 )  


     PseudoPot. # 1 for Al read from file:
     PPs/Al.pz-vbc.UPF
     MD5 check sum: f06ceae8da0fe5c02c98e3688433298c
     Pseudo is Norm-conserving, Zval =  3.0
     Generated by new atomic code, or converted to UPF format
     Using radial grid of  171 points,  2 beta functions with: 
                l(1) =   0
                l(2) =   1

     PseudoPot. # 2 for As read from file:
     PPs/As.pz-bhs.UPF
     MD5 check sum: 2c53d8691f3db84e0fbdf898b12bc293
     Pseudo is Norm-conserving, Zval =  5.0
     Generated by new atomic code, or converted to UPF format
     Using radial grid of  525 points,  2 beta functions with: 
                l(1) =   0
                l(2) =   1

     atomic species   valence    mass     pseudopotential
        Al             3.00     1.00000     Al( 1.00)
        As             5.00     1.00000     As( 1.00)

     24 Sym. Ops. (no inversion) found


                                    s                        frac. trans.

      isym =  1     identity                                     

 cryst.   s( 1) = (     1          0          0      )
                  (     0          1          0      )
                  (     0          0          1      )

 cart.    s( 1) = (  1.0000000  0.0000000  0.0000000 )
                  (  0.0000000  1.0000000  0.0000000 )
                  (  0.0000000  0.0000000  1.0000000 )


      isym =  2     180 deg rotation - cart. axis [0,0,1]        

 cryst.   s( 2) = (     0          1         -1      )
                  (     1          0         -1      )
                  (     0          0         -1      )

 cart.    s( 2) = ( -1.0000000  0.0000000  0.0000000 )
                  (  0.0000000 -1.0000000  0.0000000 )
                  (  0.0000000  0.0000000  1.0000000 )


      isym =  3     180 deg rotation - cart. axis [0,1,0]        

 cryst.   s( 3) = (    -1          0          0      )
                  (    -1          0          1      )
                  (    -1          1          0      )

 cart.    s( 3) = ( -1.0000000  0.0000000  0.0000000 )
                  (  0.0000000  1.0000000  0.0000000 )
                  (  0.0000000  0.0000000 -1.0000000 )


      isym =  4     180 deg rotation - cart. axis [1,0,0]        

 cryst.   s( 4) = (     0         -1          1      )
                  (     0         -1          0      )
                  (     1         -1          0      )

 cart.    s( 4) = (  1.0000000  0.0000000  0.0000000 )
                  (  0.0000000 -1.0000000  0.0000000 )
                  (  0.0000000  0.0000000 -1.0000000 )


      isym =  5     120 deg rotation - cart. axis [-1,-1,-1]     

 cryst.   s( 5) = (    -1          0          1      )
                  (    -1          1          0      )
                  (    -1          0          0      )

 cart.    s( 5) = (  0.0000000  1.0000000  0.0000000 )
                  (  0.0000000  0.0000000  1.0000000 )
                  (  1.0000000  0.0000000  0.0000000 )


      isym =  6     120 deg rotation - cart. axis [-1,1,1]       

 cryst.   s( 6) = (     0          1          0      )
                  (     0          0          1      )
                  (     1          0          0      )

 cart.    s( 6) = (  0.0000000 -1.0000000  0.0000000 )
                  (  0.0000000  0.0000000  1.0000000 )
                  ( -1.0000000  0.0000000  0.0000000 )


      isym =  7     120 deg rotation - cart. axis [1,1,-1]       

 cryst.   s( 7) = (     1          0         -1      )
                  (     0          0         -1      )
                  (     0          1         -1      )

 cart.    s( 7) = (  0.0000000  1.0000000  0.0000000 )
                  (  0.0000000  0.0000000 -1.0000000 )
                  ( -1.0000000  0.0000000  0.0000000 )


      isym =  8     120 deg rotation - cart. axis [1,-1,1]       

 cryst.   s( 8) = (     0         -1          0      )
                  (     1         -1          0      )
                  (     0         -1          1      )

 cart.    s( 8) = (  0.0000000 -1.0000000  0.0000000 )
                  (  0.0000000  0.0000000 -1.0000000 )
                  (  1.0000000  0.0000000  0.0000000 )


      isym =  9     120 deg rotation - cart. axis [1,1,1]        

 cryst.   s( 9) = (     0          0         -1      )
                  (     0          1         -1      )
                  (     1          0         -1      )

 cart.    s( 9) = (  0.0000000  0.0000000  1.0000000 )
                  (  1.0000000  0.0000000  0.0000000 )
                  (  0.0000000  1.0000000  0.0000000 )


      isym = 10     120 deg rotation - cart. axis [-1,1,-1]      

 cryst.   s(10) = (    -1          1          0      )
                  (    -1          0          0      )
                  (    -1          0          1      )

 cart.    s(10) = (  0.0000000  0.0000000  1.0000000 )
                  ( -1.0000000  0.0000000  0.0000000 )
                  (  0.0000000 -1.0000000  0.0000000 )


      isym = 11     120 deg rotation - cart. axis [1,-1,-1]      

 cryst.   s(11) = (     0          0          1      )
                  (     1          0          0      )
                  (     0          1          0      )

 cart.    s(11) = (  0.0000000  0.0000000 -1.0000000 )
                  ( -1.0000000  0.0000000  0.0000000 )
                  (  0.0000000  1.0000000  0.0000000 )


      isym = 12     120 deg rotation - cart. axis [-1,-1,1]      

 cryst.   s(12) = (     1         -1          0      )
                  (     0         -1          1      )
                  (     0         -1          0      )

 cart.    s(12) = (  0.0000000  0.0000000 -1.0000000 )
                  (  1.0000000  0.0000000  0.0000000 )
                  (  0.0000000 -1.0000000  0.0000000 )


      isym = 13     inv. 180 deg rotation - cart. axis [1,1,0]   

 cryst.   s(13) = (     0          1          0      )
                  (     1          0          0      )
                  (     0          0          1      )

 cart.    s(13) = (  0.0000000 -1.0000000  0.0000000 )
                  ( -1.0000000  0.0000000  0.0000000 )
                  (  0.0000000  0.0000000  1.0000000 )


      isym = 14     inv. 180 deg rotation - cart. axis [1,-1,0]  

 cryst.   s(14) = (     1          0         -1      )
                  (     0          1         -1      )
                  (     0          0         -1      )

 cart.    s(14) = (  0.0000000  1.0000000  0.0000000 )
                  (  1.0000000  0.0000000  0.0000000 )
                  (  0.0000000  0.0000000  1.0000000 )


      isym = 15     inv.  90 deg rotation - cart. axis [0,0,-1]  

 cryst.   s(15) = (     0         -1          0      )
                  (     0         -1          1      )
                  (     1         -1          0      )

 cart.    s(15) = (  0.0000000 -1.0000000  0.0000000 )
                  (  1.0000000  0.0000000  0.0000000 )
                  (  0.0000000  0.0000000 -1.0000000 )


      isym = 16     inv.  90 deg rotation - cart. axis [0,0,1]   

 cryst.   s(16) = (    -1          0          1      )
                  (    -1          0          0      )
                  (    -1          1          0      )

 cart.    s(16) = (  0.0000000  1.0000000  0.0000000 )
                  ( -1.0000000  0.0000000  0.0000000 )
                  (  0.0000000  0.0000000 -1.0000000 )


      isym = 17     inv. 180 deg rotation - cart. axis [1,0,1]   

 cryst.   s(17) = (     1          0          0      )
                  (     0          0          1      )
                  (     0          1          0      )

 cart.    s(17) = (  0.0000000  0.0000000 -1.0000000 )
                  (  0.0000000  1.0000000  0.0000000 )
                  ( -1.0000000  0.0000000  0.0000000 )


      isym = 18     inv. 180 deg rotation - cart. axis [-1,0,1]  

 cryst.   s(18) = (    -1          0          0      )
                  (    -1          1          0      )
                  (    -1          0          1      )

 cart.    s(18) = (  0.0000000  0.0000000  1.0000000 )
                  (  0.0000000  1.0000000  0.0000000 )
                  (  1.0000000  0.0000000  0.0000000 )


      isym = 19     inv.  90 deg rotation - cart. axis [0,1,0]   

 cryst.   s(19) = (     0         -1          1      )
                  (     1         -1          0      )
                  (     0         -1          0      )

 cart.    s(19) = (  0.0000000  0.0000000 -1.0000000 )
                  (  0.0000000 -1.0000000  0.0000000 )
                  (  1.0000000  0.0000000  0.0000000 )


      isym = 20     inv.  90 deg rotation - cart. axis [0,-1,0]  

 cryst.   s(20) = (     0          1         -1      )
                  (     0          0         -1      )
                  (     1          0         -1      )

 cart.    s(20) = (  0.0000000  0.0000000  1.0000000 )
                  (  0.0000000 -1.0000000  0.0000000 )
                  ( -1.0000000  0.0000000  0.0000000 )


      isym = 21     inv. 180 deg rotation - cart. axis [0,1,1]   

 cryst.   s(21) = (     1         -1          0      )
                  (     0         -1          0      )
                  (     0         -1          1      )

 cart.    s(21) = (  1.0000000  0.0000000  0.0000000 )
                  (  0.0000000  0.0000000 -1.0000000 )
                  (  0.0000000 -1.0000000  0.0000000 )


      isym = 22     inv. 180 deg rotation - cart. axis [0,1,-1]  

 cryst.   s(22) = (     0          0          1      )
                  (     0          1          0      )
                  (     1          0          0      )

 cart.    s(22) = (  1.0000000  0.0000000  0.0000000 )
                  (  0.0000000  0.0000000  1.0000000 )
                  (  0.0000000  1.0000000  0.0000000 )


      isym = 23     inv.  90 deg rotation - cart. axis [-1,0,0]  

 cryst.   s(23) = (     0          0         -1      )
                  (     1          0         -1      )
                  (     0          1         -1      )

 cart.    s(23) = ( -1.0000000  0.0000000  0.0000000 )
                  (  0.0000000  0.0000000 -1.0000000 )
                  (  0.0000000  1.0000000  0.0000000 )


      isym = 24     inv.  90 deg rotation - cart. axis [1,0,0]   

 cryst.   s(24) = (    -1          1          0      )
                  (    -1          0          1      )
                  (    -1          0          0      )

 cart.    s(24) = ( -1.0000000  0.0000000  0.0000000 )
                  (  0.0000000  0.0000000  1.0000000 )
                  (  0.0000000 -1.0000000  0.0000000 )


     point group T_d (-43m) 
     there are  5 classes
     the character table:

       E     8C3   3C2   6S4   6s_d 
A_1    1.00  1.00  1.00  1.00  1.00
A_2    1.00  1.00  1.00 -1.00 -1.00
E      2.00 -1.00  2.00  0.00  0.00
T_1    3.00  0.00 -1.00  1.00 -1.00
T_2    3.00  0.00 -1.00 -1.00  1.00

     the symmetry operations in each class and the name of the first element:

     E        1
          identity                                               
     8C3      5    7    8    6   12    9   10   11
          120 deg rotation - cart. axis [-1,-1,-1]               
     3C2      2    3    4
          180 deg rotation - cart. axis [0,0,1]                  
     6S4     15   16   20   19   23   24
          inv.  90 deg rotation - cart. axis [0,0,-1]            
     6s_d    13   14   17   18   21   22
          inv. 180 deg rotation - cart. axis [1,1,0]             

   Cartesian axes

     site n.     atom                  positions (alat units)
         1           Al  tau(   1) = (   0.0000000   0.0000000   0.0000000  )
         2           As  tau(   2) = (  -0.2500000   0.2500000   0.2500000  )

   Crystallographic axes

     site n.     atom                  positions (cryst. coord.)
         1           Al  tau(   1) = (  0.0000000  0.0000000  0.0000000  )
         2           As  tau(   2) = (  0.2500000  0.2500000  0.2500000  )

     number of k points=    47
                       cart. coord. in units 2pi/alat
        k(    1) = (   0.0000000   0.0000000   0.0000000), wk =   0.0020000
        k(    2) = (  -0.1000000   0.1000000  -0.1000000), wk =   0.0160000
        k(    3) = (  -0.2000000   0.2000000  -0.2000000), wk =   0.0160000
        k(    4) = (  -0.3000000   0.3000000  -0.3000000), wk =   0.0160000
        k(    5) = (  -0.4000000   0.4000000  -0.4000000), wk =   0.0160000
        k(    6) = (   0.5000000  -0.5000000   0.5000000), wk =   0.0080000
        k(    7) = (   0.0000000   0.2000000   0.0000000), wk =   0.0120000
        k(    8) = (  -0.1000000   0.3000000  -0.1000000), wk =   0.0480000
        k(    9) = (  -0.2000000   0.4000000  -0.2000000), wk =   0.0480000
        k(   10) = (  -0.3000000   0.5000000  -0.3000000), wk =   0.0480000
        k(   11) = (   0.6000000  -0.4000000   0.6000000), wk =   0.0480000
        k(   12) = (   0.5000000  -0.3000000   0.5000000), wk =   0.0480000
        k(   13) = (   0.4000000  -0.2000000   0.4000000), wk =   0.0480000
        k(   14) = (   0.3000000  -0.1000000   0.3000000), wk =   0.0480000
        k(   15) = (   0.2000000   0.0000000   0.2000000), wk =   0.0240000
        k(   16) = (   0.0000000   0.4000000   0.0000000), wk =   0.0120000
        k(   17) = (  -0.1000000   0.5000000  -0.1000000), wk =   0.0480000
        k(   18) = (  -0.2000000   0.6000000  -0.2000000), wk =   0.0480000
        k(   19) = (   0.7000000  -0.3000000   0.7000000), wk =   0.0480000
        k(   20) = (   0.6000000  -0.2000000   0.6000000), wk =   0.0480000
        k(   21) = (   0.5000000  -0.1000000   0.5000000), wk =   0.0480000
        k(   22) = (   0.4000000   0.0000000   0.4000000), wk =   0.0240000
        k(   23) = (   0.0000000   0.6000000   0.0000000), wk =   0.0120000
        k(   24) = (  -0.1000000   0.7000000  -0.1000000), wk =   0.0480000
        k(   25) = (   0.8000000  -0.2000000   0.8000000), wk =   0.0480000
        k(   26) = (   0.7000000  -0.1000000   0.7000000), wk =   0.0480000
        k(   27) = (   0.6000000  -0.0000000   0.6000000), wk =   0.0240000
        k(   28) = (   0.0000000   0.8000000   0.0000000), wk =   0.0120000
        k(   29) = (   0.9000000  -0.1000000   0.9000000), wk =   0.0480000
        k(   30) = (   0.8000000   0.0000000   0.8000000), wk =   0.0240000
        k(   31) = (   0.0000000  -1.0000000   0.0000000), wk =   0.0060000
        k(   32) = (  -0.2000000   0.4000000   0.0000000), wk =   0.0480000
        k(   33) = (  -0.3000000   0.5000000  -0.1000000), wk =   0.0960000
        k(   34) = (   0.6000000  -0.4000000   0.8000000), wk =   0.0960000
        k(   35) = (   0.5000000  -0.3000000   0.7000000), wk =   0.0480000
        k(   36) = (  -0.2000000   0.6000000   0.0000000), wk =   0.0480000
        k(   37) = (   0.7000000  -0.3000000   0.9000000), wk =   0.0960000
        k(   38) = (   0.6000000  -0.2000000   0.8000000), wk =   0.0960000
        k(   39) = (   0.5000000  -0.1000000   0.7000000), wk =   0.0960000
        k(   40) = (   0.4000000   0.0000000   0.6000000), wk =   0.0480000
        k(   41) = (   0.8000000  -0.2000000   1.0000000), wk =   0.0480000
        k(   42) = (   0.7000000  -0.1000000   0.9000000), wk =   0.0960000
        k(   43) = (   0.6000000   0.0000000   0.8000000), wk =   0.0480000
        k(   44) = (  -0.2000000  -1.0000000   0.0000000), wk =   0.0240000
        k(   45) = (   0.6000000  -0.2000000   1.0000000), wk =   0.0480000
        k(   46) = (   0.5000000  -0.1000000   0.9000000), wk =   0.0480000
        k(   47) = (  -0.4000000  -1.0000000   0.0000000), wk =   0.0240000

                       cryst. coord.
        k(    1) = (   0.0000000   0.0000000   0.0000000), wk =   0.0020000
        k(    2) = (   0.0000000   0.0000000   0.1000000), wk =   0.0160000
        k(    3) = (   0.0000000   0.0000000   0.2000000), wk =   0.0160000
        k(    4) = (   0.0000000   0.0000000   0.3000000), wk =   0.0160000
        k(    5) = (   0.0000000   0.0000000   0.4000000), wk =   0.0160000
        k(    6) = (   0.0000000   0.0000000  -0.5000000), wk =   0.0080000
        k(    7) = (   0.0000000   0.1000000   0.1000000), wk =   0.0120000
        k(    8) = (   0.0000000   0.1000000   0.2000000), wk =   0.0480000
        k(    9) = (   0.0000000   0.1000000   0.3000000), wk =   0.0480000
        k(   10) = (   0.0000000   0.1000000   0.4000000), wk =   0.0480000
        k(   11) = (   0.0000000   0.1000000  -0.5000000), wk =   0.0480000
        k(   12) = (   0.0000000   0.1000000  -0.4000000), wk =   0.0480000
        k(   13) = (   0.0000000   0.1000000  -0.3000000), wk =   0.0480000
        k(   14) = (   0.0000000   0.1000000  -0.2000000), wk =   0.0480000
        k(   15) = (   0.0000000   0.1000000  -0.1000000), wk =   0.0240000
        k(   16) = (   0.0000000   0.2000000   0.2000000), wk =   0.0120000
        k(   17) = (   0.0000000   0.2000000   0.3000000), wk =   0.0480000
        k(   18) = (   0.0000000   0.2000000   0.4000000), wk =   0.0480000
        k(   19) = (   0.0000000   0.2000000  -0.5000000), wk =   0.0480000
        k(   20) = (   0.0000000   0.2000000  -0.4000000), wk =   0.0480000
        k(   21) = (   0.0000000   0.2000000  -0.3000000), wk =   0.0480000
        k(   22) = (   0.0000000   0.2000000  -0.2000000), wk =   0.0240000
        k(   23) = (   0.0000000   0.3000000   0.3000000), wk =   0.0120000
        k(   24) = (   0.0000000   0.3000000   0.4000000), wk =   0.0480000
        k(   25) = (   0.0000000   0.3000000  -0.5000000), wk =   0.0480000
        k(   26) = (   0.0000000   0.3000000  -0.4000000), wk =   0.0480000
        k(   27) = (   0.0000000   0.3000000  -0.3000000), wk =   0.0240000
        k(   28) = (   0.0000000   0.4000000   0.4000000), wk =   0.0120000
        k(   29) = (   0.0000000   0.4000000  -0.5000000), wk =   0.0480000
        k(   30) = (   0.0000000   0.4000000  -0.4000000), wk =   0.0240000
        k(   31) = (   0.0000000  -0.5000000  -0.5000000), wk =   0.0060000
        k(   32) = (   0.1000000   0.2000000   0.3000000), wk =   0.0480000
        k(   33) = (   0.1000000   0.2000000   0.4000000), wk =   0.0960000
        k(   34) = (   0.1000000   0.2000000  -0.5000000), wk =   0.0960000
        k(   35) = (   0.1000000   0.2000000  -0.4000000), wk =   0.0480000
        k(   36) = (   0.1000000   0.3000000   0.4000000), wk =   0.0480000
        k(   37) = (   0.1000000   0.3000000  -0.5000000), wk =   0.0960000
        k(   38) = (   0.1000000   0.3000000  -0.4000000), wk =   0.0960000
        k(   39) = (   0.1000000   0.3000000  -0.3000000), wk =   0.0960000
        k(   40) = (   0.1000000   0.3000000  -0.2000000), wk =   0.0480000
        k(   41) = (   0.1000000   0.4000000  -0.5000000), wk =   0.0480000
        k(   42) = (   0.1000000   0.4000000  -0.4000000), wk =   0.0960000
        k(   43) = (   0.1000000   0.4000000  -0.3000000), wk =   0.0480000
        k(   44) = (   0.1000000  -0.5000000  -0.4000000), wk =   0.0240000
        k(   45) = (   0.2000000   0.4000000  -0.4000000), wk =   0.0480000
        k(   46) = (   0.2000000   0.4000000  -0.3000000), wk =   0.0480000
        k(   47) = (   0.2000000  -0.5000000  -0.3000000), wk =   0.0240000

     Dense  grid:    10417 G-vectors     FFT dimensions: (  32,  32,  32)

     Dynamical RAM for                 wfc:       0.01 MB

     Dynamical RAM for     wfc (w. buffer):       0.08 MB

     Dynamical RAM for           str. fact:       0.05 MB

     Dynamical RAM for           local pot:       0.00 MB

     Dynamical RAM for          nlocal pot:       0.02 MB

     Dynamical RAM for                qrad:       0.17 MB

     Dynamical RAM for          rho,v,vnew:       0.19 MB

     Dynamical RAM for               rhoin:       0.06 MB

     Dynamical RAM for            rho*nmix:       0.36 MB

     Dynamical RAM for           G-vectors:       0.10 MB

     Dynamical RAM for          h,s,v(r/c):       0.00 MB

     Dynamical RAM for          <psi|beta>:       0.00 MB

     Dynamical RAM for      wfcinit/wfcrot:       0.05 MB

     Estimated static dynamical RAM per process >       1.29 MB

     Estimated max dynamical RAM per process >       1.34 MB

     Estimated total dynamical RAM >      75.00 MB

     Initial potential from superposition of free atoms

     starting charge    7.99774, renormalised to    8.00000

     negative rho (up, down):  2.682E-05 0.000E+00
     Starting wfcs are    8 randomized atomic wfcs

     total cpu time spent up to now is        0.4 secs

     Self-consistent Calculation

     iteration #  1     ecut=    40.00 Ry     beta= 0.70
     CG style diagonalization
     ethr =  1.00E-02,  avg # of iterations =  2.8

     negative rho (up, down):  6.409E-06 0.000E+00

     total cpu time spent up to now is        0.5 secs

     total energy              =     -16.98239439 Ry
     estimated scf accuracy    <       0.08183772 Ry

     iteration #  2     ecut=    40.00 Ry     beta= 0.70
     CG style diagonalization
     ethr =  1.02E-03,  avg # of iterations =  4.8

     negative rho (up, down):  8.892E-07 0.000E+00

     total cpu time spent up to now is        0.6 secs

     total energy              =     -17.01582169 Ry
     estimated scf accuracy    <       0.01955764 Ry

     iteration #  3     ecut=    40.00 Ry     beta= 0.70
     CG style diagonalization
     ethr =  2.44E-04,  avg # of iterations =  3.5

     total cpu time spent up to now is        0.6 secs

     total energy              =     -17.01694177 Ry
     estimated scf accuracy    <       0.00206473 Ry

     iteration #  4     ecut=    40.00 Ry     beta= 0.70
     CG style diagonalization
     ethr =  2.58E-05,  avg # of iterations =  4.8

     total cpu time spent up to now is        0.7 secs

     total energy              =     -17.01838044 Ry
     estimated scf accuracy    <       0.00197056 Ry

     iteration #  5     ecut=    40.00 Ry     beta= 0.70
     CG style diagonalization
     ethr =  2.46E-05,  avg # of iterations =  3.5

     total cpu time spent up to now is        0.7 secs

     total energy              =     -17.01857739 Ry
     estimated scf accuracy    <       0.00007093 Ry

     iteration #  6     ecut=    40.00 Ry     beta= 0.70
     CG style diagonalization
     ethr =  8.87E-07,  avg # of iterations =  5.3

     total cpu time spent up to now is        0.8 secs

     total energy              =     -17.01871323 Ry
     estimated scf accuracy    <       0.00007462 Ry

     iteration #  7     ecut=    40.00 Ry     beta= 0.70
     CG style diagonalization
     ethr =  8.87E-07,  avg # of iterations =  3.0

     total cpu time spent up to now is        0.8 secs

     total energy              =     -17.01870961 Ry
     estimated scf accuracy    <       0.00001784 Ry

     iteration #  8     ecut=    40.00 Ry     beta= 0.70
     CG style diagonalization
     ethr =  2.23E-07,  avg # of iterations =  4.5

     total cpu time spent up to now is        0.9 secs

     total energy              =     -17.01871535 Ry
     estimated scf accuracy    <       0.00000024 Ry

     iteration #  9     ecut=    40.00 Ry     beta= 0.70
     CG style diagonalization
     ethr =  3.04E-09,  avg # of iterations =  5.1

     total cpu time spent up to now is        1.0 secs

     total energy              =     -17.01871626 Ry
     estimated scf accuracy    <       0.00000018 Ry

     iteration # 10     ecut=    40.00 Ry     beta= 0.70
     CG style diagonalization
     ethr =  2.21E-09,  avg # of iterations =  3.0

     total cpu time spent up to now is        1.0 secs

     total energy              =     -17.01871638 Ry
     estimated scf accuracy    <       0.00000009 Ry

     iteration # 11     ecut=    40.00 Ry     beta= 0.70
     CG style diagonalization
     ethr =  1.07E-09,  avg # of iterations =  4.0

     total cpu time spent up to now is        1.1 secs

     total energy              =     -17.01871615 Ry
     estimated scf accuracy    <       0.00000038 Ry

     iteration # 12     ecut=    40.00 Ry     beta= 0.70
     CG style diagonalization
     ethr =  1.07E-09,  avg # of iterations =  5.2

     total cpu time spent up to now is        1.1 secs

     total energy              =     -17.01871624 Ry
     estimated scf accuracy    <       0.00000005 Ry

     iteration # 13     ecut=    40.00 Ry     beta= 0.70
     CG style diagonalization
     ethr =  5.99E-10,  avg # of iterations =  3.2

     total cpu time spent up to now is        1.2 secs

     total energy              =     -17.01871624 Ry
     estimated scf accuracy    <          6.4E-09 Ry

     iteration # 14     ecut=    40.00 Ry     beta= 0.70
     CG style diagonalization
     ethr =  7.94E-11,  avg # of iterations =  4.7

     total cpu time spent up to now is        1.2 secs

     End of self-consistent calculation

          k = 0.0000 0.0000 0.0000 (  1291 PWs)   bands (ev):

    -7.2395   4.5964   4.5964   4.5964

     occupation numbers 
     1.0000   1.0000   1.0000   1.0000

          k =-0.1000 0.1000-0.1000 (  1309 PWs)   bands (ev):

    -7.1426   3.5738   4.4931   4.4931

     occupation numbers 
     1.0000   1.0000   1.0000   1.0000

          k =-0.2000 0.2000-0.2000 (  1324 PWs)   bands (ev):

    -6.8650   1.9832   4.2598   4.2598

     occupation numbers 
     1.0000   1.0000   1.0000   1.0000

          k =-0.3000 0.3000-0.3000 (  1320 PWs)   bands (ev):

    -6.4553   0.5304   4.0227   4.0227

     occupation numbers 
     1.0000   1.0000   1.0000   1.0000

          k =-0.4000 0.4000-0.4000 (  1302 PWs)   bands (ev):

    -6.0361  -0.5414   3.8594   3.8594

     occupation numbers 
     1.0000   1.0000   1.0000   1.0000

          k = 0.5000-0.5000 0.5000 (  1308 PWs)   bands (ev):

    -5.8418  -0.9570   3.8022   3.8022

     occupation numbers 
     1.0000   1.0000   1.0000   1.0000

          k = 0.0000 0.2000 0.0000 (  1299 PWs)   bands (ev):

    -7.1101   3.5953   4.2653   4.2653

     occupation numbers 
     1.0000   1.0000   1.0000   1.0000

          k =-0.1000 0.3000-0.1000 (  1315 PWs)   bands (ev):

    -6.8920   2.3792   3.9656   4.0575

     occupation numbers 
     1.0000   1.0000   1.0000   1.0000

          k =-0.2000 0.4000-0.2000 (  1312 PWs)   bands (ev):

    -6.5227   0.9705   3.7233   3.7442

     occupation numbers 
     1.0000   1.0000   1.0000   1.0000

          k =-0.3000 0.5000-0.3000 (  1308 PWs)   bands (ev):

    -6.0945  -0.1964   3.4152   3.6028

     occupation numbers 
     1.0000   1.0000   1.0000   1.0000

          k = 0.6000-0.4000 0.6000 (  1314 PWs)   bands (ev):

    -5.8036  -0.8349   3.1758   3.6233

     occupation numbers 
     1.0000   1.0000   1.0000   1.0000

          k = 0.5000-0.3000 0.5000 (  1307 PWs)   bands (ev):

    -5.8702  -0.6959   3.0775   3.7758

     occupation numbers 
     1.0000   1.0000   1.0000   1.0000

          k = 0.4000-0.2000 0.4000 (  1315 PWs)   bands (ev):

    -6.2363   0.1539   3.1480   4.0267

     occupation numbers 
     1.0000   1.0000   1.0000   1.0000

          k = 0.3000-0.1000 0.3000 (  1321 PWs)   bands (ev):

    -6.6604   1.4147   3.4073   4.3090

     occupation numbers 
     1.0000   1.0000   1.0000   1.0000

          k = 0.2000 0.0000 0.2000 (  1315 PWs)   bands (ev):

    -6.9851   2.7291   3.8996   4.5074

     occupation numbers 
     1.0000   1.0000   1.0000   1.0000

          k = 0.0000 0.4000 0.0000 (  1307 PWs)   bands (ev):

    -6.7373   2.1057   3.6082   3.6082

     occupation numbers 
     1.0000   1.0000   1.0000   1.0000

          k =-0.1000 0.5000-0.1000 (  1317 PWs)   bands (ev):

    -6.4253   1.1548   3.2095   3.3290

     occupation numbers 
     1.0000   1.0000   1.0000   1.0000

          k =-0.2000 0.6000-0.2000 (  1308 PWs)   bands (ev):

    -6.0258   0.1465   2.6757   3.1954

     occupation numbers 
     1.0000   1.0000   1.0000   1.0000

          k = 0.7000-0.3000 0.7000 (  1308 PWs)   bands (ev):

    -5.6927  -0.5464   2.2149   3.2290

     occupation numbers 
     1.0000   1.0000   1.0000   1.0000

          k = 0.6000-0.2000 0.6000 (  1295 PWs)   bands (ev):

    -5.6415  -0.6339   1.9544   3.4217

     occupation numbers 
     1.0000   1.0000   1.0000   1.0000

          k = 0.5000-0.1000 0.5000 (  1308 PWs)   bands (ev):

    -5.9141  -0.0929   1.9794   3.7348

     occupation numbers 
     1.0000   1.0000   1.0000   1.0000

          k = 0.4000 0.0000 0.4000 (  1326 PWs)   bands (ev):

    -6.3138   0.7201   2.4375   4.0819

     occupation numbers 
     1.0000   1.0000   1.0000   1.0000

          k = 0.0000 0.6000 0.0000 (  1311 PWs)   bands (ev):

    -6.1789   0.7251   3.0050   3.0050

     occupation numbers 
     1.0000   1.0000   1.0000   1.0000

          k =-0.1000 0.7000-0.1000 (  1301 PWs)   bands (ev):

    -5.8401   0.0676   2.5089   2.8310

     occupation numbers 
     1.0000   1.0000   1.0000   1.0000

          k = 0.8000-0.2000 0.8000 (  1300 PWs)   bands (ev):

    -5.5300  -0.4156   1.7828   2.8356

     occupation numbers 
     1.0000   1.0000   1.0000   1.0000

          k = 0.7000-0.1000 0.7000 (  1303 PWs)   bands (ev):

    -5.4217  -0.5173   1.2561   3.0173

     occupation numbers 
     1.0000   1.0000   1.0000   1.0000

          k = 0.6000-0.0000 0.6000 (  1306 PWs)   bands (ev):

    -5.5894  -0.3054   1.2480   3.3440

     occupation numbers 
     1.0000   1.0000   1.0000   1.0000

          k = 0.0000 0.8000 0.0000 (  1306 PWs)   bands (ev):

    -5.5881  -0.3621   2.6082   2.6082

     occupation numbers 
     1.0000   1.0000   1.0000   1.0000

          k = 0.9000-0.1000 0.9000 (  1303 PWs)   bands (ev):

    -5.3709  -0.6572   2.1320   2.5659

     occupation numbers 
     1.0000   1.0000   1.0000   1.0000

          k = 0.8000 0.0000 0.8000 (  1302 PWs)   bands (ev):

    -5.3058  -0.6300   1.4367   2.7098

     occupation numbers 
     1.0000   1.0000   1.0000   1.0000

          k = 0.0000-1.0000 0.0000 (  1298 PWs)   bands (ev):

    -5.3014  -0.8155   2.4713   2.4713

     occupation numbers 
     1.0000   1.0000   1.0000   1.0000

          k =-0.2000 0.4000 0.0000 (  1321 PWs)   bands (ev):

    -6.6263   1.5611   3.1953   3.9730

     occupation numbers 
     1.0000   1.0000   1.0000   1.0000

          k =-0.3000 0.5000-0.1000 (  1309 PWs)   bands (ev):

    -6.2378   0.5117   2.6663   3.7107

     occupation numbers 
     1.0000   1.0000   1.0000   1.0000

          k = 0.6000-0.4000 0.8000 (  1311 PWs)   bands (ev):

    -5.8469  -0.3818   2.4171   3.4461

     occupation numbers 
     1.0000   1.0000   1.0000   1.0000

          k = 0.5000-0.3000 0.7000 (  1300 PWs)   bands (ev):

    -5.6685  -0.7414   2.3466   3.3393

     occupation numbers 
     1.0000   1.0000   1.0000   1.0000

          k =-0.2000 0.6000 0.0000 (  1305 PWs)   bands (ev):

    -6.0956   0.4914   2.5704   3.1348

     occupation numbers 
     1.0000   1.0000   1.0000   1.0000

          k = 0.7000-0.3000 0.9000 (  1304 PWs)   bands (ev):

    -5.7302  -0.1615   2.0080   2.8781

     occupation numbers 
     1.0000   1.0000   1.0000   1.0000

          k = 0.6000-0.2000 0.8000 (  1298 PWs)   bands (ev):

    -5.4997  -0.5290   1.6092   2.8339

     occupation numbers 
     1.0000   1.0000   1.0000   1.0000

          k = 0.5000-0.1000 0.7000 (  1302 PWs)   bands (ev):

    -5.5643  -0.4111   1.4859   3.0309

     occupation numbers 
     1.0000   1.0000   1.0000   1.0000

          k = 0.4000 0.0000 0.6000 (  1303 PWs)   bands (ev):

    -5.8725   0.0405   1.8080   3.3825

     occupation numbers 
     1.0000   1.0000   1.0000   1.0000

          k = 0.8000-0.2000 1.0000 (  1313 PWs)   bands (ev):

    -5.5484  -0.3575   2.1882   2.4742

     occupation numbers 
     1.0000   1.0000   1.0000   1.0000

          k = 0.7000-0.1000 0.9000 (  1302 PWs)   bands (ev):

    -5.3496  -0.5404   1.5578   2.3994

     occupation numbers 
     1.0000   1.0000   1.0000   1.0000

          k = 0.6000 0.0000 0.8000 (  1298 PWs)   bands (ev):

    -5.3596  -0.4642   1.1581   2.6285

     occupation numbers 
     1.0000   1.0000   1.0000   1.0000

          k =-0.2000-1.0000 0.0000 (  1298 PWs)   bands (ev):

    -5.2909  -0.7141   2.0920   2.2005

     occupation numbers 
     1.0000   1.0000   1.0000   1.0000

          k = 0.6000-0.2000 1.0000 (  1294 PWs)   bands (ev):

    -5.4536  -0.3736   1.4973   2.4125

     occupation numbers 
     1.0000   1.0000   1.0000   1.0000

          k = 0.5000-0.1000 0.9000 (  1302 PWs)   bands (ev):

    -5.3362  -0.4574   1.3225   2.2040

     occupation numbers 
     1.0000   1.0000   1.0000   1.0000

          k =-0.4000-1.0000 0.0000 (  1302 PWs)   bands (ev):

    -5.2736  -0.5077   1.5332   1.8586

     occupation numbers 
     1.0000   1.0000   1.0000   1.0000

     highest occupied level (ev):     4.5964

!    total energy              =     -17.01871624 Ry
     estimated scf accuracy    <          7.8E-11 Ry

     The total energy is the sum of the following terms:
     one-electron contribution =       2.96477381 Ry
     hartree contribution      =       1.61916073 Ry
     xc contribution           =      -4.77906511 Ry
     ewald contribution        =     -16.82358568 Ry

     convergence has been achieved in  14 iterations

     Writing output data file run_output/AlAs.save/

     init_run     :      0.07s CPU      0.12s WALL (       1 calls)
     electrons    :      0.76s CPU      0.84s WALL (       1 calls)

     Called by init_run:
     wfcinit      :      0.02s CPU      0.03s WALL (       1 calls)
     wfcinit:atom :      0.00s CPU      0.00s WALL (       6 calls)
     wfcinit:wfcr :      0.02s CPU      0.03s WALL (       6 calls)
     potinit      :      0.01s CPU      0.01s WALL (       1 calls)
     hinit0       :      0.01s CPU      0.02s WALL (       1 calls)

     Called by electrons:
     c_bands      :      0.60s CPU      0.64s WALL (      14 calls)
     sum_band     :      0.08s CPU      0.09s WALL (      14 calls)
     v_of_rho     :      0.02s CPU      0.03s WALL (      15 calls)
     v_h          :      0.00s CPU      0.00s WALL (      15 calls)
     v_xc         :      0.02s CPU      0.02s WALL (      15 calls)
     mix_rho      :      0.01s CPU      0.02s WALL (      14 calls)

     Called by c_bands:
     init_us_2    :      0.01s CPU      0.01s WALL (     174 calls)
     ccgdiagg     :      0.41s CPU      0.43s WALL (      84 calls)
     wfcrot       :      0.15s CPU      0.16s WALL (      84 calls)

     Called by sum_band:
     sum_band:wei :      0.00s CPU      0.00s WALL (      14 calls)
     sum_band:loo :      0.06s CPU      0.07s WALL (      14 calls)
     sum_band:buf :      0.00s CPU      0.00s WALL (      84 calls)
     sum_band:ini :      0.01s CPU      0.01s WALL (      84 calls)

     Called by *cgdiagg:
     h_psi        :      0.46s CPU      0.49s WALL (    1174 calls)

     Called by h_psi:
     h_psi:calbec :      0.02s CPU      0.02s WALL (    1174 calls)
     vloc_psi     :      0.43s CPU      0.45s WALL (    1174 calls)
     add_vuspsi   :      0.00s CPU      0.00s WALL (    1174 calls)
     hs_1psi      :      0.36s CPU      0.38s WALL (    1090 calls)
     s_1psi       :      0.02s CPU      0.02s WALL (    1090 calls)

     General routines
     calbec       :      0.03s CPU      0.03s WALL (    2264 calls)
     fft          :      0.01s CPU      0.01s WALL (      44 calls)
     ffts         :      0.00s CPU      0.00s WALL (      14 calls)
     fftw         :      0.39s CPU      0.41s WALL (    3236 calls)

     Parallel routines
     fft_scatt_xy :      0.07s CPU      0.07s WALL (    3294 calls)
     fft_scatt_yz :      0.11s CPU      0.12s WALL (    3294 calls)

     PWSCF        :      1.07s CPU      1.35s WALL


   This run was terminated on:  10:31: 0   6Oct2021            

=------------------------------------------------------------------------------=
   JOB DONE.
=------------------------------------------------------------------------------=
