
     Program BANDS v.6.7MaX starts on  4Jan2022 at 17:49: 2 

     This program is part of the open-source Quantum ESPRESSO suite
     for quantum simulation of materials; please cite
         "P. Giannozzi et al., J. Phys.:Condens. Matter 21 395502 (2009);
         "P. Giannozzi et al., J. Phys.:Condens. Matter 29 465901 (2017);
          URL http://www.quantum-espresso.org", 
     in publications or presentations arising from this work. More details at
     http://www.quantum-espresso.org/quote

     Parallel version (MPI), running on    84 processors

     MPI processes distributed on     3 nodes
     R & G space division:  proc/nbgrp/npool/nimage =      84

     Reading xml data from directory:

     run_output/MoS2_2D.save/

     IMPORTANT: XC functional enforced from input :
     Exchange-correlation= PZ
                           (   1   1   0   0   0   0   0)
     Any further DFT definition will be discarded
     Please, verify this is what you really want


     Parallelization info
     --------------------
     sticks:   dense  smooth     PW     G-vecs:    dense   smooth      PW
     Min           6       6      1                  652      652      79
     Max           7       7      2                  693      693     122
     Sum         583     583    163                56613    56613    9123


     Check: negative core charge=   -0.000110
     Reading collected, re-writing distributed wavefunctions
     high-symmetry point:  0.0000 0.0000 0.0000   x coordinate   0.0000
     high-symmetry point:  0.5000 0.2887 0.0000   x coordinate   0.5774
     high-symmetry point:  0.3333 0.5774 0.0000   x coordinate   0.9107
     high-symmetry point:  0.0000 0.0000 0.0000   x coordinate   1.5774
     high-symmetry point:  0.0000 0.0000 0.0980   x coordinate   1.6753
     high-symmetry point:  0.5000 0.2887 0.0980   x coordinate   2.2527
     high-symmetry point:  0.3333 0.5774 0.0980   x coordinate   2.5860
     high-symmetry point:  0.0000 0.0000 0.0980   x coordinate   3.2527
     high-symmetry point:  0.5000 0.2887 0.0980   x coordinate   3.2527
     high-symmetry point:  0.5000 0.2887 0.0000   x coordinate   3.3506
     high-symmetry point:  0.3333 0.5774 0.0980   x coordinate   3.3506
     high-symmetry point:  0.3333 0.5774 0.0000   x coordinate   3.4486

     Plottable bands (eV) written to file bands_MoS2_2D.gnu
     Bands written to file bands_MoS2_2D

 **************************************************************************

                    xk=(   0.00000,   0.00000,   0.00000  )

     point group D_3h (-62m)
     there are  6 classes
     the character table:

       E     2C3   3C2   s_h   2S3   3s_v 
A'_1   1.00  1.00  1.00  1.00  1.00  1.00
A'_2   1.00  1.00 -1.00  1.00  1.00 -1.00
E'     2.00 -1.00  0.00  2.00 -1.00  0.00
A''1   1.00  1.00  1.00 -1.00 -1.00 -1.00
A''2   1.00  1.00 -1.00 -1.00 -1.00  1.00
E''    2.00 -1.00  0.00 -2.00  1.00  0.00

     the symmetry operations in each class and the name of the first element:

     E        1
                                                                 
     2C3      3    4
                                                                 
     3C2      2    6    5
                                                                 
     s_h      7
                                                                 
     2S3      9   10
                                                                 
     3s_v     8   11   12
                                                                 

     Band symmetry, D_3h (-62m) point group:

     e(  1 -  1) =    -60.01925  eV     1   --> A'_1           
     e(  2 -  2) =    -34.50547  eV     1   --> A''2           
     e(  3 -  4) =    -34.19274  eV     2   --> E'             
     e(  5 -  5) =    -13.92473  eV     1   --> A'_1           
     e(  6 -  6) =    -12.53190  eV     1   --> A''2           
     e(  7 -  7) =     -5.48551  eV     1   --> A'_1           
     e(  8 -  9) =     -2.27457  eV     2   --> E'             
     e( 10 - 10) =     -1.53818  eV     1   --> A''2           
     e( 11 - 12) =     -1.08147  eV     2   --> E''            
     e( 13 - 13) =      0.23262  eV     1   --> A'_1           
     e( 14 - 15) =      3.35187  eV     2   --> E''            
     e( 16 - 17) =      3.64281  eV     2   --> E'             
     e( 18 - 18) =      5.10253  eV     1   --> A'_1           
     e( 19 - 19) =      5.77423  eV     1   --> A''2           
     e( 20 - 20) =      6.60675  eV     1   --> A'_1           
     e( 21 - 21) =      7.11712  eV     1   --> A'_1           
     e( 22 - 22) =      8.66924  eV     1   --> A''2           
     e( 23 - 23) =      9.58713  eV     1   --> A''2           
     e( 24 - 24) =     10.44987  eV     1   --> A'_1           
     e( 25 - 26) =     11.28682  eV     2   --> E'             
     e( 27 - 28) =     13.30611  eV     2   --> E''            
     e( 29 - 29) =     13.46057  eV     1   --> A'_1           
     e( 30 - 30) =     13.53496  eV     1   --> A''2           
     e( 31 - 31) =     15.45764  eV     1   --> A'_1           
     e( 32 - 33) =     16.70347  eV     2   --> E''            
     e( 34 - 34) =     16.70674  eV     1   --> A''2           
     e( 35 - 36) =     17.11676  eV     2   --> E'             
     e( 37 - 37) =     18.97730  eV     1   --> A'_1           
     e( 38 - 38) =     19.67421  eV     1   --> A''2           
     e( 39 - 39) =     20.58137  eV     1   --> A''2           
     e( 40 - 40) =     21.29398  eV     1   --> A'_1           

 **************************************************************************

 **************************************************************************

                    xk=(   0.01667,   0.00962,   0.00000  )

     point group C_2v (mm2) 
     there are  4 classes
     the character table:

       E     C2    s_v   s_v' 
A_1    1.00  1.00  1.00  1.00
A_2    1.00  1.00 -1.00 -1.00
B_1    1.00 -1.00  1.00 -1.00
B_2    1.00 -1.00 -1.00  1.00

     the symmetry operations in each class and the name of the first element:

     E        1
                                                                 
     C2       2
                                                                 
     s_v      3
                                                                 
     s_v'     4
                                                                 

     Band symmetry, C_2v (mm2)  point group:

     e(  1 -  1) =    -60.01821  eV     1   --> A_1  D_1  S_1  
     e(  2 -  2) =    -34.50514  eV     1   --> B_2  D_4  S_4  
     e(  3 -  3) =    -34.19390  eV     1   --> A_1  D_1  S_1  
     e(  4 -  4) =    -34.19281  eV     1   --> B_1  D_3  S_3  
     e(  5 -  5) =    -13.92009  eV     1   --> A_1  D_1  S_1  
     e(  6 -  6) =    -12.53005  eV     1   --> B_2  D_4  S_4  
     e(  7 -  7) =     -5.48020  eV     1   --> A_1  D_1  S_1  
     e(  8 -  8) =     -2.28493  eV     1   --> A_1  D_1  S_1  
     e(  9 -  9) =     -2.26964  eV     1   --> B_1  D_3  S_3  
     e( 10 - 10) =     -1.57165  eV     1   --> B_2  D_4  S_4  
     e( 11 - 11) =     -1.08909  eV     1   --> A_2  D_2  S_2  
     e( 12 - 12) =     -1.05409  eV     1   --> B_2  D_4  S_4  
     e( 13 - 13) =      0.23163  eV     1   --> A_1  D_1  S_1  
     e( 14 - 14) =      3.34361  eV     1   --> B_2  D_4  S_4  
     e( 15 - 15) =      3.36034  eV     1   --> A_2  D_2  S_2  
     e( 16 - 16) =      3.62649  eV     1   --> A_1  D_1  S_1  
     e( 17 - 17) =      3.63721  eV     1   --> B_1  D_3  S_3  
     e( 18 - 18) =      5.10933  eV     1   --> A_1  D_1  S_1  
     e( 19 - 19) =      5.78000  eV     1   --> B_2  D_4  S_4  
     e( 20 - 20) =      6.62205  eV     1   --> A_1  D_1  S_1  
     e( 21 - 21) =      7.13099  eV     1   --> A_1  D_1  S_1  
     e( 22 - 22) =      8.67438  eV     1   --> B_2  D_4  S_4  
     e( 23 - 23) =      9.60883  eV     1   --> B_2  D_4  S_4  
     e( 24 - 24) =     10.45142  eV     1   --> A_1  D_1  S_1  
     e( 25 - 25) =     11.27740  eV     1   --> A_1  D_1  S_1  
     e( 26 - 26) =     11.30146  eV     1   --> B_1  D_3  S_3  
     e( 27 - 27) =     13.26018  eV     1   --> B_2  D_4  S_4  
     e( 28 - 28) =     13.30732  eV     1   --> A_2  D_2  S_2  
     e( 29 - 29) =     13.46244  eV     1   --> A_1  D_1  S_1  
     e( 30 - 30) =     13.54328  eV     1   --> B_2  D_4  S_4  
     e( 31 - 31) =     15.45765  eV     1   --> A_1  D_1  S_1  
     e( 32 - 32) =     16.65903  eV     1   --> B_2  D_4  S_4  
     e( 33 - 33) =     16.71219  eV     1   --> A_2  D_2  S_2  
     e( 34 - 34) =     16.76687  eV     1   --> B_2  D_4  S_4  
     e( 35 - 35) =     17.10092  eV     1   --> B_1  D_3  S_3  
     e( 36 - 36) =     17.11568  eV     1   --> A_1  D_1  S_1  
     e( 37 - 37) =     18.99367  eV     1   --> A_1  D_1  S_1  
     e( 38 - 38) =     19.69119  eV     1   --> B_2  D_4  S_4  
     e( 39 - 39) =     20.61986  eV     1   --> B_2  D_4  S_4  
     e( 40 - 40) =     21.29230  eV     1   --> A_1  D_1  S_1  

 **************************************************************************

 **************************************************************************

                    xk=(   0.03333,   0.01925,   0.00000  )

     Band symmetry, C_2v (mm2)  point group:

     e(  1 -  1) =    -60.01776  eV     1   --> A_1  D_1  S_1  
     e(  2 -  2) =    -34.50431  eV     1   --> B_2  D_4  S_4  
     e(  3 -  3) =    -34.19782  eV     1   --> A_1  D_1  S_1  
     e(  4 -  4) =    -34.19395  eV     1   --> B_1  D_3  S_3  
     e(  5 -  5) =    -13.90629  eV     1   --> A_1  D_1  S_1  
     e(  6 -  6) =    -12.52450  eV     1   --> B_2  D_4  S_4  
     e(  7 -  7) =     -5.46456  eV     1   --> A_1  D_1  S_1  
     e(  8 -  8) =     -2.31560  eV     1   --> A_1  D_1  S_1  
     e(  9 -  9) =     -2.25494  eV     1   --> B_1  D_3  S_3  
     e( 10 - 10) =     -1.65483  eV     1   --> B_2  D_4  S_4  
     e( 11 - 11) =     -1.11181  eV     1   --> A_2  D_2  S_2  
     e( 12 - 12) =     -0.98954  eV     1   --> B_2  D_4  S_4  
     e( 13 - 13) =      0.22848  eV     1   --> A_1  D_1  S_1  
     e( 14 - 14) =      3.31982  eV     1   --> B_2  D_4  S_4  
     e( 15 - 15) =      3.38532  eV     1   --> A_2  D_2  S_2  
     e( 16 - 16) =      3.57909  eV     1   --> A_1  D_1  S_1  
     e( 17 - 17) =      3.62052  eV     1   --> B_1  D_3  S_3  
     e( 18 - 18) =      5.12942  eV     1   --> A_1  D_1  S_1  
     e( 19 - 19) =      5.79729  eV     1   --> B_2  D_4  S_4  
     e( 20 - 20) =      6.66549  eV     1   --> A_1  D_1  S_1  
     e( 21 - 21) =      7.17381  eV     1   --> A_1  D_1  S_1  
     e( 22 - 22) =      8.68975  eV     1   --> B_2  D_4  S_4  
     e( 23 - 23) =      9.67262  eV     1   --> B_2  D_4  S_4  
     e( 24 - 24) =     10.45531  eV     1   --> A_1  D_1  S_1  
     e( 25 - 25) =     11.25107  eV     1   --> A_1  D_1  S_1  
     e( 26 - 26) =     11.34475  eV     1   --> B_1  D_3  S_3  
     e( 27 - 27) =     13.13506  eV     1   --> B_2  D_4  S_4  
     e( 28 - 28) =     13.31056  eV     1   --> A_2  D_2  S_2  
     e( 29 - 29) =     13.46643  eV     1   --> A_1  D_1  S_1  
     e( 30 - 30) =     13.56265  eV     1   --> B_2  D_4  S_4  
     e( 31 - 31) =     15.45762  eV     1   --> A_1  D_1  S_1  
     e( 32 - 32) =     16.55683  eV     1   --> B_2  D_4  S_4  
     e( 33 - 33) =     16.73785  eV     1   --> A_2  D_2  S_2  
     e( 34 - 34) =     16.91474  eV     1   --> B_2  D_4  S_4  
     e( 35 - 35) =     17.05309  eV     1   --> B_1  D_3  S_3  
     e( 36 - 36) =     17.11204  eV     1   --> A_1  D_1  S_1  
     e( 37 - 37) =     19.04270  eV     1   --> A_1  D_1  S_1  
     e( 38 - 38) =     19.73720  eV     1   --> B_2  D_4  S_4  
     e( 39 - 39) =     20.73381  eV     1   --> B_2  D_4  S_4  
     e( 40 - 40) =     21.28724  eV     1   --> A_1  D_1  S_1  

 **************************************************************************

 **************************************************************************

                    xk=(   0.05000,   0.02887,   0.00000  )

     Band symmetry, C_2v (mm2)  point group:

     e(  1 -  1) =    -60.01640  eV     1   --> A_1  D_1  S_1  
     e(  2 -  2) =    -34.50300  eV     1   --> B_2  D_4  S_4  
     e(  3 -  3) =    -34.20448  eV     1   --> A_1  D_1  S_1  
     e(  4 -  4) =    -34.19520  eV     1   --> B_1  D_3  S_3  
     e(  5 -  5) =    -13.88331  eV     1   --> A_1  D_1  S_1  
     e(  6 -  6) =    -12.51530  eV     1   --> B_2  D_4  S_4  
     e(  7 -  7) =     -5.43875  eV     1   --> A_1  D_1  S_1  
     e(  8 -  8) =     -2.36544  eV     1   --> A_1  D_1  S_1  
     e(  9 -  9) =     -2.23052  eV     1   --> B_1  D_3  S_3  
     e( 10 - 10) =     -1.76357  eV     1   --> B_2  D_4  S_4  
     e( 11 - 11) =     -1.14873  eV     1   --> A_2  D_2  S_2  
     e( 12 - 12) =     -0.91273  eV     1   --> B_2  D_4  S_4  
     e( 13 - 13) =      0.22263  eV     1   --> A_1  D_1  S_1  
     e( 14 - 14) =      3.28359  eV     1   --> B_2  D_4  S_4  
     e( 15 - 15) =      3.42594  eV     1   --> A_2  D_2  S_2  
     e( 16 - 16) =      3.50488  eV     1   --> A_1  D_1  S_1  
     e( 17 - 17) =      3.59343  eV     1   --> B_1  D_3  S_3  
     e( 18 - 18) =      5.16201  eV     1   --> A_1  D_1  S_1  
     e( 19 - 19) =      5.82602  eV     1   --> B_2  D_4  S_4  
     e( 20 - 20) =      6.73049  eV     1   --> A_1  D_1  S_1  
     e( 21 - 21) =      7.24874  eV     1   --> A_1  D_1  S_1  
     e( 22 - 22) =      8.71516  eV     1   --> B_2  D_4  S_4  
     e( 23 - 23) =      9.77523  eV     1   --> B_2  D_4  S_4  
     e( 24 - 24) =     10.45908  eV     1   --> A_1  D_1  S_1  
     e( 25 - 25) =     11.21303  eV     1   --> A_1  D_1  S_1  
     e( 26 - 26) =     11.41640  eV     1   --> B_1  D_3  S_3  
     e( 27 - 27) =     12.95325  eV     1   --> B_2  D_4  S_4  
     e( 28 - 28) =     13.31663  eV     1   --> A_2  D_2  S_2  
     e( 29 - 29) =     13.46812  eV     1   --> A_1  D_1  S_1  
     e( 30 - 30) =     13.58859  eV     1   --> B_2  D_4  S_4  
     e( 31 - 31) =     15.45732  eV     1   --> A_1  D_1  S_1  
     e( 32 - 32) =     16.40505  eV     1   --> B_2  D_4  S_4  
     e( 33 - 33) =     16.77985  eV     1   --> A_2  D_2  S_2  
     e( 34 - 34) =     16.97535  eV     1   --> B_1  D_3  S_3  
     e( 35 - 35) =     17.10743  eV     1   --> A_1  D_1  S_1  
     e( 36 - 36) =     17.13957  eV     1   --> B_2  D_4  S_4  
     e( 37 - 37) =     19.12409  eV     1   --> A_1  D_1  S_1  
     e( 38 - 38) =     19.80259  eV     1   --> B_2  D_4  S_4  
     e( 39 - 39) =     20.91715  eV     1   --> B_2  D_4  S_4  
     e( 40 - 40) =     21.27859  eV     1   --> A_1  D_1  S_1  

 **************************************************************************

 **************************************************************************

                    xk=(   0.06667,   0.03849,   0.00000  )

     Band symmetry, C_2v (mm2)  point group:

     e(  1 -  1) =    -60.01501  eV     1   --> A_1  D_1  S_1  
     e(  2 -  2) =    -34.50084  eV     1   --> B_2  D_4  S_4  
     e(  3 -  3) =    -34.21399  eV     1   --> A_1  D_1  S_1  
     e(  4 -  4) =    -34.19728  eV     1   --> B_1  D_3  S_3  
     e(  5 -  5) =    -13.85135  eV     1   --> A_1  D_1  S_1  
     e(  6 -  6) =    -12.50250  eV     1   --> B_2  D_4  S_4  
     e(  7 -  7) =     -5.40327  eV     1   --> A_1  D_1  S_1  
     e(  8 -  8) =     -2.43278  eV     1   --> A_1  D_1  S_1  
     e(  9 -  9) =     -2.19661  eV     1   --> B_1  D_3  S_3  
     e( 10 - 10) =     -1.88514  eV     1   --> B_2  D_4  S_4  
     e( 11 - 11) =     -1.19870  eV     1   --> A_2  D_2  S_2  
     e( 12 - 12) =     -0.83751  eV     1   --> B_2  D_4  S_4  
     e( 13 - 13) =      0.21322  eV     1   --> A_1  D_1  S_1  
     e( 14 - 14) =      3.23950  eV     1   --> B_2  D_4  S_4  
     e( 15 - 15) =      3.40965  eV     1   --> A_1  D_1  S_1  
     e( 16 - 16) =      3.48066  eV     1   --> A_2  D_2  S_2  
     e( 17 - 17) =      3.55677  eV     1   --> B_1  D_3  S_3  
     e( 18 - 18) =      5.20624  eV     1   --> A_1  D_1  S_1  
     e( 19 - 19) =      5.86609  eV     1   --> B_2  D_4  S_4  
     e( 20 - 20) =      6.80845  eV     1   --> A_1  D_1  S_1  
     e( 21 - 21) =      7.35939  eV     1   --> A_1  D_1  S_1  
     e( 22 - 22) =      8.75031  eV     1   --> B_2  D_4  S_4  
     e( 23 - 23) =      9.91110  eV     1   --> B_2  D_4  S_4  
     e( 24 - 24) =     10.45870  eV     1   --> A_1  D_1  S_1  
     e( 25 - 25) =     11.17080  eV     1   --> A_1  D_1  S_1  
     e( 26 - 26) =     11.51525  eV     1   --> B_1  D_3  S_3  
     e( 27 - 27) =     12.73534  eV     1   --> B_2  D_4  S_4  
     e( 28 - 28) =     13.32659  eV     1   --> A_2  D_2  S_2  
     e( 29 - 29) =     13.46182  eV     1   --> A_1  D_1  S_1  
     e( 30 - 30) =     13.62031  eV     1   --> B_2  D_4  S_4  
     e( 31 - 31) =     15.45609  eV     1   --> A_1  D_1  S_1  
     e( 32 - 32) =     16.22087  eV     1   --> B_2  D_4  S_4  
     e( 33 - 33) =     16.83712  eV     1   --> A_2  D_2  S_2  
     e( 34 - 34) =     16.86990  eV     1   --> B_1  D_3  S_3  
     e( 35 - 35) =     17.10408  eV     1   --> A_1  D_1  S_1  
     e( 36 - 36) =     17.42178  eV     1   --> B_2  D_4  S_4  
     e( 37 - 37) =     19.23684  eV     1   --> A_1  D_1  S_1  
     e( 38 - 38) =     19.88069  eV     1   --> B_2  D_4  S_4  
     e( 39 - 39) =     21.15761  eV     1   --> B_2  D_4  S_4  
     e( 40 - 40) =     21.26528  eV     1   --> A_1  D_1  S_1  

 **************************************************************************

 **************************************************************************

                    xk=(   0.08333,   0.04811,   0.00000  )

     Band symmetry, C_2v (mm2)  point group:

     e(  1 -  1) =    -60.01426  eV     1   --> A_1  D_1  S_1  
     e(  2 -  2) =    -34.49859  eV     1   --> B_2  D_4  S_4  
     e(  3 -  3) =    -34.22595  eV     1   --> A_1  D_1  S_1  
     e(  4 -  4) =    -34.20004  eV     1   --> B_1  D_3  S_3  
     e(  5 -  5) =    -13.81065  eV     1   --> A_1  D_1  S_1  
     e(  6 -  6) =    -12.48617  eV     1   --> B_2  D_4  S_4  
     e(  7 -  7) =     -5.35882  eV     1   --> A_1  D_1  S_1  
     e(  8 -  8) =     -2.51531  eV     1   --> A_1  D_1  S_1  
     e(  9 -  9) =     -2.15351  eV     1   --> B_1  D_3  S_3  
     e( 10 - 10) =     -2.01383  eV     1   --> B_2  D_4  S_4  
     e( 11 - 11) =     -1.26014  eV     1   --> A_2  D_2  S_2  
     e( 12 - 12) =     -0.77122  eV     1   --> B_2  D_4  S_4  
     e( 13 - 13) =      0.19899  eV     1   --> A_1  D_1  S_1  
     e( 14 - 14) =      3.19317  eV     1   --> B_2  D_4  S_4  
     e( 15 - 15) =      3.29995  eV     1   --> A_1  D_1  S_1  
     e( 16 - 16) =      3.51168  eV     1   --> B_1  D_3  S_3  
     e( 17 - 17) =      3.54760  eV     1   --> A_2  D_2  S_2  
     e( 18 - 18) =      5.26143  eV     1   --> A_1  D_1  S_1  
     e( 19 - 19) =      5.91733  eV     1   --> B_2  D_4  S_4  
     e( 20 - 20) =      6.89200  eV     1   --> A_1  D_1  S_1  
     e( 21 - 21) =      7.50724  eV     1   --> A_1  D_1  S_1  
     e( 22 - 22) =      8.79475  eV     1   --> B_2  D_4  S_4  
     e( 23 - 23) =     10.07235  eV     1   --> B_2  D_4  S_4  
     e( 24 - 24) =     10.44889  eV     1   --> A_1  D_1  S_1  
     e( 25 - 25) =     11.13396  eV     1   --> A_1  D_1  S_1  
     e( 26 - 26) =     11.63993  eV     1   --> B_1  D_3  S_3  
     e( 27 - 27) =     12.50003  eV     1   --> B_2  D_4  S_4  
     e( 28 - 28) =     13.34147  eV     1   --> A_2  D_2  S_2  
     e( 29 - 29) =     13.44129  eV     1   --> A_1  D_1  S_1  
     e( 30 - 30) =     13.65683  eV     1   --> B_2  D_4  S_4  
     e( 31 - 31) =     15.45256  eV     1   --> A_1  D_1  S_1  
     e( 32 - 32) =     16.02064  eV     1   --> B_2  D_4  S_4  
     e( 33 - 33) =     16.73969  eV     1   --> B_1  D_3  S_3  
     e( 34 - 34) =     16.90779  eV     1   --> A_2  D_2  S_2  
     e( 35 - 35) =     17.10541  eV     1   --> A_1  D_1  S_1  
     e( 36 - 36) =     17.74395  eV     1   --> B_2  D_4  S_4  
     e( 37 - 37) =     19.37899  eV     1   --> A_1  D_1  S_1  
     e( 38 - 38) =     19.96982  eV     1   --> B_2  D_4  S_4  
     e( 39 - 39) =     21.24287  eV     1   --> A_1  D_1  S_1  
     e( 40 - 40) =     21.43584  eV     1   --> B_2  D_4  S_4  

 **************************************************************************

 **************************************************************************

                    xk=(   0.10000,   0.05774,   0.00000  )

     Band symmetry, C_2v (mm2)  point group:

     e(  1 -  1) =    -60.01131  eV     1   --> A_1  D_1  S_1  
     e(  2 -  2) =    -34.49557  eV     1   --> B_2  D_4  S_4  
     e(  3 -  3) =    -34.23979  eV     1   --> A_1  D_1  S_1  
     e(  4 -  4) =    -34.20294  eV     1   --> B_1  D_3  S_3  
     e(  5 -  5) =    -13.76133  eV     1   --> A_1  D_1  S_1  
     e(  6 -  6) =    -12.46643  eV     1   --> B_2  D_4  S_4  
     e(  7 -  7) =     -5.30620  eV     1   --> A_1  D_1  S_1  
     e(  8 -  8) =     -2.61032  eV     1   --> A_1  D_1  S_1  
     e(  9 -  9) =     -2.14671  eV     1   --> B_2  D_4  S_4  
     e( 10 - 10) =     -2.10152  eV     1   --> B_1  D_3  S_3  
     e( 11 - 11) =     -1.33128  eV     1   --> A_2  D_2  S_2  
     e( 12 - 12) =     -0.71810  eV     1   --> B_2  D_4  S_4  
     e( 13 - 13) =      0.17849  eV     1   --> A_1  D_1  S_1  
     e( 14 - 14) =      3.15047  eV     1   --> B_2  D_4  S_4  
     e( 15 - 15) =      3.18237  eV     1   --> A_1  D_1  S_1  
     e( 16 - 16) =      3.45962  eV     1   --> B_1  D_3  S_3  
     e( 17 - 17) =      3.62473  eV     1   --> A_2  D_2  S_2  
     e( 18 - 18) =      5.32718  eV     1   --> A_1  D_1  S_1  
     e( 19 - 19) =      5.97959  eV     1   --> B_2  D_4  S_4  
     e( 20 - 20) =      6.97745  eV     1   --> A_1  D_1  S_1  
     e( 21 - 21) =      7.68962  eV     1   --> A_1  D_1  S_1  
     e( 22 - 22) =      8.84788  eV     1   --> B_2  D_4  S_4  
     e( 23 - 23) =     10.24781  eV     1   --> B_2  D_4  S_4  
     e( 24 - 24) =     10.42513  eV     1   --> A_1  D_1  S_1  
     e( 25 - 25) =     11.11100  eV     1   --> A_1  D_1  S_1  
     e( 26 - 26) =     11.78894  eV     1   --> B_1  D_3  S_3  
     e( 27 - 27) =     12.26506  eV     1   --> B_2  D_4  S_4  
     e( 28 - 28) =     13.36312  eV     1   --> A_2  D_2  S_2  
     e( 29 - 29) =     13.40222  eV     1   --> A_1  D_1  S_1  
     e( 30 - 30) =     13.69604  eV     1   --> B_2  D_4  S_4  
     e( 31 - 31) =     15.44442  eV     1   --> A_1  D_1  S_1  
     e( 32 - 32) =     15.81875  eV     1   --> B_2  D_4  S_4  
     e( 33 - 33) =     16.58817  eV     1   --> B_1  D_3  S_3  
     e( 34 - 34) =     16.99064  eV     1   --> A_2  D_2  S_2  
     e( 35 - 35) =     17.11597  eV     1   --> A_1  D_1  S_1  
     e( 36 - 36) =     18.09194  eV     1   --> B_2  D_4  S_4  
     e( 37 - 37) =     19.54723  eV     1   --> A_1  D_1  S_1  
     e( 38 - 38) =     20.07112  eV     1   --> B_2  D_4  S_4  
     e( 39 - 39) =     21.19268  eV     1   --> A_1  D_1  S_1  
     e( 40 - 40) =     21.71431  eV     1   --> B_2  D_4  S_4  

 **************************************************************************

 **************************************************************************

                    xk=(   0.11667,   0.06736,   0.00000  )

     Band symmetry, C_2v (mm2)  point group:

     e(  1 -  1) =    -60.00968  eV     1   --> A_1  D_1  S_1  
     e(  2 -  2) =    -34.49229  eV     1   --> B_2  D_4  S_4  
     e(  3 -  3) =    -34.25632  eV     1   --> A_1  D_1  S_1  
     e(  4 -  4) =    -34.20656  eV     1   --> B_1  D_3  S_3  
     e(  5 -  5) =    -13.70384  eV     1   --> A_1  D_1  S_1  
     e(  6 -  6) =    -12.44340  eV     1   --> B_2  D_4  S_4  
     e(  7 -  7) =     -5.24679  eV     1   --> A_1  D_1  S_1  
     e(  8 -  8) =     -2.71502  eV     1   --> A_1  D_1  S_1  
     e(  9 -  9) =     -2.28232  eV     1   --> B_2  D_4  S_4  
     e( 10 - 10) =     -2.04115  eV     1   --> B_1  D_3  S_3  
     e( 11 - 11) =     -1.41039  eV     1   --> A_2  D_2  S_2  
     e( 12 - 12) =     -0.68119  eV     1   --> B_2  D_4  S_4  
     e( 13 - 13) =      0.14999  eV     1   --> A_1  D_1  S_1  
     e( 14 - 14) =      3.06309  eV     1   --> A_1  D_1  S_1  
     e( 15 - 15) =      3.11684  eV     1   --> B_2  D_4  S_4  
     e( 16 - 16) =      3.40198  eV     1   --> B_1  D_3  S_3  
     e( 17 - 17) =      3.70972  eV     1   --> A_2  D_2  S_2  
     e( 18 - 18) =      5.40325  eV     1   --> A_1  D_1  S_1  
     e( 19 - 19) =      6.05265  eV     1   --> B_2  D_4  S_4  
     e( 20 - 20) =      7.06411  eV     1   --> A_1  D_1  S_1  
     e( 21 - 21) =      7.90001  eV     1   --> A_1  D_1  S_1  
     e( 22 - 22) =      8.90878  eV     1   --> B_2  D_4  S_4  
     e( 23 - 23) =     10.38626  eV     1   --> A_1  D_1  S_1  
     e( 24 - 24) =     10.41973  eV     1   --> B_2  D_4  S_4  
     e( 25 - 25) =     11.10618  eV     1   --> A_1  D_1  S_1  
     e( 26 - 26) =     11.95991  eV     1   --> B_1  D_3  S_3  
     e( 27 - 27) =     12.05091  eV     1   --> B_2  D_4  S_4  
     e( 28 - 28) =     13.34232  eV     1   --> A_1  D_1  S_1  
     e( 29 - 29) =     13.39269  eV     1   --> A_2  D_2  S_2  
     e( 30 - 30) =     13.73428  eV     1   --> B_2  D_4  S_4  
     e( 31 - 31) =     15.42851  eV     1   --> A_1  D_1  S_1  
     e( 32 - 32) =     15.62769  eV     1   --> B_2  D_4  S_4  
     e( 33 - 33) =     16.41859  eV     1   --> B_1  D_3  S_3  
     e( 34 - 34) =     17.08321  eV     1   --> A_2  D_2  S_2  
     e( 35 - 35) =     17.14019  eV     1   --> A_1  D_1  S_1  
     e( 36 - 36) =     18.45321  eV     1   --> B_2  D_4  S_4  
     e( 37 - 37) =     19.73601  eV     1   --> A_1  D_1  S_1  
     e( 38 - 38) =     20.18506  eV     1   --> B_2  D_4  S_4  
     e( 39 - 39) =     21.02384  eV     1   --> A_1  D_1  S_1  
     e( 40 - 40) =     21.53748  eV     1   -->   ?

 **************************************************************************

 **************************************************************************

                    xk=(   0.13333,   0.07698,   0.00000  )

     Band symmetry, C_2v (mm2)  point group:

     e(  1 -  1) =    -60.00757  eV     1   --> A_1  D_1  S_1  
     e(  2 -  2) =    -34.48853  eV     1   --> B_2  D_4  S_4  
     e(  3 -  3) =    -34.27461  eV     1   --> A_1  D_1  S_1  
     e(  4 -  4) =    -34.21078  eV     1   --> B_1  D_3  S_3  
     e(  5 -  5) =    -13.63845  eV     1   --> A_1  D_1  S_1  
     e(  6 -  6) =    -12.41723  eV     1   --> B_2  D_4  S_4  
     e(  7 -  7) =     -5.18216  eV     1   --> A_1  D_1  S_1  
     e(  8 -  8) =     -2.82615  eV     1   --> A_1  D_1  S_1  
     e(  9 -  9) =     -2.41965  eV     1   --> B_2  D_4  S_4  
     e( 10 - 10) =     -1.97290  eV     1   --> B_1  D_3  S_3  
     e( 11 - 11) =     -1.49570  eV     1   --> A_2  D_2  S_2  
     e( 12 - 12) =     -0.66218  eV     1   --> B_2  D_4  S_4  
     e( 13 - 13) =      0.11180  eV     1   --> A_1  D_1  S_1  
     e( 14 - 14) =      2.94812  eV     1   --> A_1  D_1  S_1  
     e( 15 - 15) =      3.09688  eV     1   --> B_2  D_4  S_4  
     e( 16 - 16) =      3.34035  eV     1   --> B_1  D_3  S_3  
     e( 17 - 17) =      3.80034  eV     1   --> A_2  D_2  S_2  
     e( 18 - 18) =      5.48957  eV     1   --> A_1  D_1  S_1  
     e( 19 - 19) =      6.13626  eV     1   --> B_2  D_4  S_4  
     e( 20 - 20) =      7.15263  eV     1   --> A_1  D_1  S_1  
     e( 21 - 21) =      8.12987  eV     1   --> A_1  D_1  S_1  
     e( 22 - 22) =      8.97613  eV     1   --> B_2  D_4  S_4  
     e( 23 - 23) =     10.33618  eV     1   --> A_1  D_1  S_1  
     e( 24 - 24) =     10.55806  eV     1   --> B_2  D_4  S_4  
     e( 25 - 25) =     11.11883  eV     1   --> A_1  D_1  S_1  
     e( 26 - 26) =     11.88818  eV     1   --> B_2  D_4  S_4  
     e( 27 - 27) =     12.15100  eV     1   --> B_1  D_3  S_3  
     e( 28 - 28) =     13.26281  eV     1   --> A_1  D_1  S_1  
     e( 29 - 29) =     13.43183  eV     1   --> A_2  D_2  S_2  
     e( 30 - 30) =     13.76629  eV     1   --> B_2  D_4  S_4  
     e( 31 - 31) =     15.40153  eV     1   --> A_1  D_1  S_1  
     e( 32 - 32) =     15.46005  eV     1   --> B_2  D_4  S_4  
     e( 33 - 33) =     16.23446  eV     1   --> B_1  D_3  S_3  
     e( 34 - 34) =     17.18184  eV     1   --> A_1  D_1  S_1  
     e( 35 - 35) =     17.18375  eV     1   --> A_2  D_2  S_2  
     e( 36 - 36) =     18.81546  eV     1   --> B_2  D_4  S_4  
     e( 37 - 37) =     19.93459  eV     1   --> A_1  D_1  S_1  
     e( 38 - 38) =     20.30083  eV     1   --> B_2  D_4  S_4  
     e( 39 - 39) =     20.60850  eV     1   --> A_1  D_1  S_1  
     e( 40 - 40) =     21.07625  eV     1   --> B_2  D_4  S_4  

 **************************************************************************

 **************************************************************************

                    xk=(   0.15000,   0.08660,   0.00000  )

     Band symmetry, C_2v (mm2)  point group:

     e(  1 -  1) =    -60.00527  eV     1   --> A_1  D_1  S_1  
     e(  2 -  2) =    -34.48448  eV     1   --> B_2  D_4  S_4  
     e(  3 -  3) =    -34.29464  eV     1   --> A_1  D_1  S_1  
     e(  4 -  4) =    -34.21533  eV     1   --> B_1  D_3  S_3  
     e(  5 -  5) =    -13.56561  eV     1   --> A_1  D_1  S_1  
     e(  6 -  6) =    -12.38809  eV     1   --> B_2  D_4  S_4  
     e(  7 -  7) =     -5.11446  eV     1   --> A_1  D_1  S_1  
     e(  8 -  8) =     -2.94037  eV     1   --> A_1  D_1  S_1  
     e(  9 -  9) =     -2.55811  eV     1   --> B_2  D_4  S_4  
     e( 10 - 10) =     -1.89743  eV     1   --> B_1  D_3  S_3  
     e( 11 - 11) =     -1.58553  eV     1   --> A_2  D_2  S_2  
     e( 12 - 12) =     -0.66166  eV     1   --> B_2  D_4  S_4  
     e( 13 - 13) =      0.06247  eV     1   --> A_1  D_1  S_1  
     e( 14 - 14) =      2.84272  eV     1   --> A_1  D_1  S_1  
     e( 15 - 15) =      3.09388  eV     1   --> B_2  D_4  S_4  
     e( 16 - 16) =      3.27634  eV     1   --> B_1  D_3  S_3  
     e( 17 - 17) =      3.89450  eV     1   --> A_2  D_2  S_2  
     e( 18 - 18) =      5.58608  eV     1   --> A_1  D_1  S_1  
     e( 19 - 19) =      6.23011  eV     1   --> B_2  D_4  S_4  
     e( 20 - 20) =      7.24369  eV     1   --> A_1  D_1  S_1  
     e( 21 - 21) =      8.36879  eV     1   --> A_1  D_1  S_1  
     e( 22 - 22) =      9.04788  eV     1   --> B_2  D_4  S_4  
     e( 23 - 23) =     10.28259  eV     1   --> A_1  D_1  S_1  
     e( 24 - 24) =     10.61928  eV     1   --> B_2  D_4  S_4  
     e( 25 - 25) =     11.14482  eV     1   --> A_1  D_1  S_1  
     e( 26 - 26) =     11.81973  eV     1   --> B_2  D_4  S_4  
     e( 27 - 27) =     12.35932  eV     1   --> B_1  D_3  S_3  
     e( 28 - 28) =     13.16801  eV     1   --> A_1  D_1  S_1  
     e( 29 - 29) =     13.48197  eV     1   --> A_2  D_2  S_2  
     e( 30 - 30) =     13.78567  eV     1   --> B_2  D_4  S_4  
     e( 31 - 31) =     15.32883  eV     1   --> B_2  D_4  S_4  
     e( 32 - 32) =     15.36097  eV     1   --> A_1  D_1  S_1  
     e( 33 - 33) =     16.03930  eV     1   --> B_1  D_3  S_3  
     e( 34 - 34) =     17.24281  eV     1   --> A_1  D_1  S_1  
     e( 35 - 35) =     17.28994  eV     1   --> A_2  D_2  S_2  
     e( 36 - 36) =     19.16452  eV     1   --> B_2  D_4  S_4  
     e( 37 - 37) =     19.98664  eV     1   --> A_1  D_1  S_1  
     e( 38 - 38) =     20.24214  eV     1   --> A_1  D_1  S_1  
     e( 39 - 39) =     20.28567  eV     1   --> B_2  D_4  S_4  
     e( 40 - 40) =     20.73363  eV     1   --> B_2  D_4  S_4  

 **************************************************************************

 **************************************************************************

                    xk=(   0.16667,   0.09623,   0.00000  )

     Band symmetry, C_2v (mm2)  point group:

     e(  1 -  1) =    -60.00318  eV     1   --> A_1  D_1  S_1  
     e(  2 -  2) =    -34.48010  eV     1   --> B_2  D_4  S_4  
     e(  3 -  3) =    -34.31632  eV     1   --> A_1  D_1  S_1  
     e(  4 -  4) =    -34.22031  eV     1   --> B_1  D_3  S_3  
     e(  5 -  5) =    -13.48578  eV     1   --> A_1  D_1  S_1  
     e(  6 -  6) =    -12.35621  eV     1   --> B_2  D_4  S_4  
     e(  7 -  7) =     -5.04645  eV     1   --> A_1  D_1  S_1  
     e(  8 -  8) =     -3.05412  eV     1   --> A_1  D_1  S_1  
     e(  9 -  9) =     -2.69727  eV     1   --> B_2  D_4  S_4  
     e( 10 - 10) =     -1.81549  eV     1   --> B_1  D_3  S_3  
     e( 11 - 11) =     -1.67836  eV     1   --> A_2  D_2  S_2  
     e( 12 - 12) =     -0.67901  eV     1   --> B_2  D_4  S_4  
     e( 13 - 13) =      0.00116  eV     1   --> A_1  D_1  S_1  
     e( 14 - 14) =      2.75130  eV     1   --> A_1  D_1  S_1  
     e( 15 - 15) =      3.10952  eV     1   --> B_2  D_4  S_4  
     e( 16 - 16) =      3.21143  eV     1   --> B_1  D_3  S_3  
     e( 17 - 17) =      3.99015  eV     1   --> A_2  D_2  S_2  
     e( 18 - 18) =      5.69274  eV     1   --> A_1  D_1  S_1  
     e( 19 - 19) =      6.33386  eV     1   --> B_2  D_4  S_4  
     e( 20 - 20) =      7.33760  eV     1   --> A_1  D_1  S_1  
     e( 21 - 21) =      8.60380  eV     1   --> A_1  D_1  S_1  
     e( 22 - 22) =      9.12073  eV     1   --> B_2  D_4  S_4  
     e( 23 - 23) =     10.23484  eV     1   --> A_1  D_1  S_1  
     e( 24 - 24) =     10.57825  eV     1   --> B_2  D_4  S_4  
     e( 25 - 25) =     11.17940  eV     1   --> A_1  D_1  S_1  
     e( 26 - 26) =     11.86853  eV     1   --> B_2  D_4  S_4  
     e( 27 - 27) =     12.58164  eV     1   --> B_1  D_3  S_3  
     e( 28 - 28) =     13.06523  eV     1   --> A_1  D_1  S_1  
     e( 29 - 29) =     13.54431  eV     1   --> A_2  D_2  S_2  
     e( 30 - 30) =     13.78739  eV     1   --> B_2  D_4  S_4  
     e( 31 - 31) =     15.24591  eV     1   --> B_2  D_4  S_4  
     e( 32 - 32) =     15.30591  eV     1   --> A_1  D_1  S_1  
     e( 33 - 33) =     15.83728  eV     1   --> B_1  D_3  S_3  
     e( 34 - 34) =     17.32262  eV     1   --> A_1  D_1  S_1  
     e( 35 - 35) =     17.39974  eV     1   --> A_2  D_2  S_2  
     e( 36 - 36) =     19.47895  eV     1   --> B_2  D_4  S_4  
     e( 37 - 37) =     19.49211  eV     1   --> A_1  D_1  S_1  
     e( 38 - 38) =     19.89799  eV     1   --> B_2  D_4  S_4  
     e( 39 - 39) =     20.40338  eV     1   --> A_1  D_1  S_1  
     e( 40 - 40) =     20.80449  eV     1   --> B_2  D_4  S_4  

 **************************************************************************

 **************************************************************************

                    xk=(   0.18333,   0.10585,   0.00000  )

     Band symmetry, C_2v (mm2)  point group:

     e(  1 -  1) =    -60.00107  eV     1   --> A_1  D_1  S_1  
     e(  2 -  2) =    -34.47565  eV     1   --> B_2  D_4  S_4  
     e(  3 -  3) =    -34.33916  eV     1   --> A_1  D_1  S_1  
     e(  4 -  4) =    -34.22560  eV     1   --> B_1  D_3  S_3  
     e(  5 -  5) =    -13.39952  eV     1   --> A_1  D_1  S_1  
     e(  6 -  6) =    -12.32180  eV     1   --> B_2  D_4  S_4  
     e(  7 -  7) =     -4.98165  eV     1   --> A_1  D_1  S_1  
     e(  8 -  8) =     -3.16346  eV     1   --> A_1  D_1  S_1  
     e(  9 -  9) =     -2.83674  eV     1   --> B_2  D_4  S_4  
     e( 10 - 10) =     -1.77279  eV     1   --> A_2  D_2  S_2  
     e( 11 - 11) =     -1.72790  eV     1   --> B_1  D_3  S_3  
     e( 12 - 12) =     -0.71256  eV     1   --> B_2  D_4  S_4  
     e( 13 - 13) =     -0.07198  eV     1   --> A_1  D_1  S_1  
     e( 14 - 14) =      2.67718  eV     1   --> A_1  D_1  S_1  
     e( 15 - 15) =      3.14404  eV     1   --> B_2  D_4  S_4  
     e( 16 - 16) =      3.14713  eV     1   --> B_1  D_3  S_3  
     e( 17 - 17) =      4.08553  eV     1   --> A_2  D_2  S_2  
     e( 18 - 18) =      5.80950  eV     1   --> A_1  D_1  S_1  
     e( 19 - 19) =      6.44703  eV     1   --> B_2  D_4  S_4  
     e( 20 - 20) =      7.43430  eV     1   --> A_1  D_1  S_1  
     e( 21 - 21) =      8.81815  eV     1   --> A_1  D_1  S_1  
     e( 22 - 22) =      9.18905  eV     1   --> B_2  D_4  S_4  
     e( 23 - 23) =     10.20255  eV     1   --> A_1  D_1  S_1  
     e( 24 - 24) =     10.46522  eV     1   --> B_2  D_4  S_4  
     e( 25 - 25) =     11.22003  eV     1   --> A_1  D_1  S_1  
     e( 26 - 26) =     12.00125  eV     1   --> B_2  D_4  S_4  
     e( 27 - 27) =     12.81344  eV     1   --> B_1  D_3  S_3  
     e( 28 - 28) =     12.96426  eV     1   --> A_1  D_1  S_1  
     e( 29 - 29) =     13.61993  eV     1   --> A_2  D_2  S_2  
     e( 30 - 30) =     13.77303  eV     1   --> B_2  D_4  S_4  
     e( 31 - 31) =     15.21866  eV     1   --> B_2  D_4  S_4  
     e( 32 - 32) =     15.23744  eV     1   --> A_1  D_1  S_1  
     e( 33 - 33) =     15.63296  eV     1   --> B_1  D_3  S_3  
     e( 34 - 34) =     17.41820  eV     1   --> A_1  D_1  S_1  
     e( 35 - 35) =     17.51129  eV     1   --> A_2  D_2  S_2  
     e( 36 - 36) =     18.95258  eV     1   --> A_1  D_1  S_1  
     e( 37 - 37) =     19.37257  eV     1   --> B_2  D_4  S_4  
     e( 38 - 38) =     19.80159  eV     1   --> B_2  D_4  S_4  
     e( 39 - 39) =     20.46992  eV     1   --> A_1  D_1  S_1  
     e( 40 - 40) =     20.74607  eV     1   --> A_1  D_1  S_1  

 **************************************************************************

 **************************************************************************

                    xk=(   0.20000,   0.11547,   0.00000  )

     Band symmetry, C_2v (mm2)  point group:

     e(  1 -  1) =    -59.99820  eV     1   --> A_1  D_1  S_1  
     e(  2 -  2) =    -34.47086  eV     1   --> B_2  D_4  S_4  
     e(  3 -  3) =    -34.36286  eV     1   --> A_1  D_1  S_1  
     e(  4 -  4) =    -34.23100  eV     1   --> B_1  D_3  S_3  
     e(  5 -  5) =    -13.30740  eV     1   --> A_1  D_1  S_1  
     e(  6 -  6) =    -12.28514  eV     1   --> B_2  D_4  S_4  
     e(  7 -  7) =     -4.92429  eV     1   --> A_1  D_1  S_1  
     e(  8 -  8) =     -3.26437  eV     1   --> A_1  D_1  S_1  
     e(  9 -  9) =     -2.97618  eV     1   --> B_2  D_4  S_4  
     e( 10 - 10) =     -1.86756  eV     1   --> A_2  D_2  S_2  
     e( 11 - 11) =     -1.63560  eV     1   --> B_1  D_3  S_3  
     e( 12 - 12) =     -0.75973  eV     1   --> B_2  D_4  S_4  
     e( 13 - 13) =     -0.15544  eV     1   --> A_1  D_1  S_1  
     e( 14 - 14) =      2.62238  eV     1   --> A_1  D_1  S_1  
     e( 15 - 15) =      3.08483  eV     1   --> B_1  D_3  S_3  
     e( 16 - 16) =      3.19629  eV     1   --> B_2  D_4  S_4  
     e( 17 - 17) =      4.17907  eV     1   --> A_2  D_2  S_2  
     e( 18 - 18) =      5.93626  eV     1   --> A_1  D_1  S_1  
     e( 19 - 19) =      6.56905  eV     1   --> B_2  D_4  S_4  
     e( 20 - 20) =      7.53344  eV     1   --> A_1  D_1  S_1  
     e( 21 - 21) =      8.99158  eV     1   --> A_1  D_1  S_1  
     e( 22 - 22) =      9.24325  eV     1   --> B_2  D_4  S_4  
     e( 23 - 23) =     10.19305  eV     1   --> A_1  D_1  S_1  
     e( 24 - 24) =     10.33204  eV     1   --> B_2  D_4  S_4  
     e( 25 - 25) =     11.26882  eV     1   --> A_1  D_1  S_1  
     e( 26 - 26) =     12.16210  eV     1   --> B_2  D_4  S_4  
     e( 27 - 27) =     12.87593  eV     1   --> A_1  D_1  S_1  
     e( 28 - 28) =     13.04856  eV     1   --> B_1  D_3  S_3  
     e( 29 - 29) =     13.70968  eV     1   --> A_2  D_2  S_2  
     e( 30 - 30) =     13.75605  eV     1   --> B_2  D_4  S_4  
     e( 31 - 31) =     15.15881  eV     1   --> A_1  D_1  S_1  
     e( 32 - 32) =     15.24654  eV     1   --> B_2  D_4  S_4  
     e( 33 - 33) =     15.43356  eV     1   --> B_1  D_3  S_3  
     e( 34 - 34) =     17.52284  eV     1   --> A_1  D_1  S_1  
     e( 35 - 35) =     17.62274  eV     1   --> A_2  D_2  S_2  
     e( 36 - 36) =     18.42113  eV     1   --> A_1  D_1  S_1  
     e( 37 - 37) =     18.88811  eV     1   --> B_2  D_4  S_4  
     e( 38 - 38) =     20.04173  eV     1   --> B_2  D_4  S_4  
     e( 39 - 39) =     20.09699  eV     1   --> A_1  D_1  S_1  
     e( 40 - 40) =     20.91689  eV     1   -->   ?

 **************************************************************************

 **************************************************************************

                    xk=(   0.21667,   0.12509,   0.00000  )

     Band symmetry, C_2v (mm2)  point group:

     e(  1 -  1) =    -59.99410  eV     1   --> A_1  D_1  S_1  
     e(  2 -  2) =    -34.46564  eV     1   --> B_2  D_4  S_4  
     e(  3 -  3) =    -34.38700  eV     1   --> A_1  D_1  S_1  
     e(  4 -  4) =    -34.23645  eV     1   --> B_1  D_3  S_3  
     e(  5 -  5) =    -13.21004  eV     1   --> A_1  D_1  S_1  
     e(  6 -  6) =    -12.24651  eV     1   --> B_2  D_4  S_4  
     e(  7 -  7) =     -4.87948  eV     1   --> A_1  D_1  S_1  
     e(  8 -  8) =     -3.35247  eV     1   --> A_1  D_1  S_1  
     e(  9 -  9) =     -3.11514  eV     1   --> B_2  D_4  S_4  
     e( 10 - 10) =     -1.96161  eV     1   --> A_2  D_2  S_2  
     e( 11 - 11) =     -1.53960  eV     1   --> B_1  D_3  S_3  
     e( 12 - 12) =     -0.81744  eV     1   --> B_2  D_4  S_4  
     e( 13 - 13) =     -0.24632  eV     1   --> A_1  D_1  S_1  
     e( 14 - 14) =      2.58755  eV     1   --> A_1  D_1  S_1  
     e( 15 - 15) =      3.02585  eV     1   --> B_1  D_3  S_3  
     e( 16 - 16) =      3.26418  eV     1   --> B_2  D_4  S_4  
     e( 17 - 17) =      4.26940  eV     1   --> A_2  D_2  S_2  
     e( 18 - 18) =      6.07286  eV     1   --> A_1  D_1  S_1  
     e( 19 - 19) =      6.69919  eV     1   --> B_2  D_4  S_4  
     e( 20 - 20) =      7.63433  eV     1   --> A_1  D_1  S_1  
     e( 21 - 21) =      9.10616  eV     1   --> A_1  D_1  S_1  
     e( 22 - 22) =      9.26824  eV     1   --> B_2  D_4  S_4  
     e( 23 - 23) =     10.20453  eV     1   --> A_1  D_1  S_1  
     e( 24 - 24) =     10.22080  eV     1   --> B_2  D_4  S_4  
     e( 25 - 25) =     11.33472  eV     1   --> A_1  D_1  S_1  
     e( 26 - 26) =     12.30437  eV     1   --> B_2  D_4  S_4  
     e( 27 - 27) =     12.81043  eV     1   --> A_1  D_1  S_1  
     e( 28 - 28) =     13.27612  eV     1   --> B_1  D_3  S_3  
     e( 29 - 29) =     13.76194  eV     1   --> B_2  D_4  S_4  
     e( 30 - 30) =     13.81401  eV     1   --> A_2  D_2  S_2  
     e( 31 - 31) =     15.07507  eV     1   --> A_1  D_1  S_1  
     e( 32 - 32) =     15.24978  eV     1   --> B_1  D_3  S_3  
     e( 33 - 33) =     15.32270  eV     1   --> B_2  D_4  S_4  
     e( 34 - 34) =     17.60113  eV     1   --> A_1  D_1  S_1  
     e( 35 - 35) =     17.73256  eV     1   --> A_2  D_2  S_2  
     e( 36 - 36) =     17.93358  eV     1   --> A_1  D_1  S_1  
     e( 37 - 37) =     18.40513  eV     1   --> B_2  D_4  S_4  
     e( 38 - 38) =     19.65042  eV     1   --> A_1  D_1  S_1  
     e( 39 - 39) =     20.25498  eV     1   --> B_2  D_4  S_4  
     e( 40 - 40) =     20.65068  eV     1   --> B_2  D_4  S_4  

 **************************************************************************

 **************************************************************************

                    xk=(   0.23333,   0.13472,   0.00000  )

     Band symmetry, C_2v (mm2)  point group:

     e(  1 -  1) =    -59.99148  eV     1   --> A_1  D_1  S_1  
     e(  2 -  2) =    -34.46062  eV     1   --> B_2  D_4  S_4  
     e(  3 -  3) =    -34.41199  eV     1   --> A_1  D_1  S_1  
     e(  4 -  4) =    -34.24226  eV     1   --> B_1  D_3  S_3  
     e(  5 -  5) =    -13.10828  eV     1   --> A_1  D_1  S_1  
     e(  6 -  6) =    -12.20627  eV     1   --> B_2  D_4  S_4  
     e(  7 -  7) =     -4.85237  eV     1   --> A_1  D_1  S_1  
     e(  8 -  8) =     -3.42404  eV     1   --> A_1  D_1  S_1  
     e(  9 -  9) =     -3.25331  eV     1   --> B_2  D_4  S_4  
     e( 10 - 10) =     -2.05401  eV     1   --> A_2  D_2  S_2  
     e( 11 - 11) =     -1.44113  eV     1   --> B_1  D_3  S_3  
     e( 12 - 12) =     -0.88266  eV     1   --> B_2  D_4  S_4  
     e( 13 - 13) =     -0.34056  eV     1   --> A_1  D_1  S_1  
     e( 14 - 14) =      2.57208  eV     1   --> A_1  D_1  S_1  
     e( 15 - 15) =      2.97138  eV     1   --> B_1  D_3  S_3  
     e( 16 - 16) =      3.34491  eV     1   --> B_2  D_4  S_4  
     e( 17 - 17) =      4.35538  eV     1   --> A_2  D_2  S_2  
     e( 18 - 18) =      6.21905  eV     1   --> A_1  D_1  S_1  
     e( 19 - 19) =      6.83647  eV     1   --> B_2  D_4  S_4  
     e( 20 - 20) =      7.73611  eV     1   --> A_1  D_1  S_1  
     e( 21 - 21) =      9.15589  eV     1   --> A_1  D_1  S_1  
     e( 22 - 22) =      9.24797  eV     1   --> B_2  D_4  S_4  
     e( 23 - 23) =     10.16101  eV     1   --> B_2  D_4  S_4  
     e( 24 - 24) =     10.22033  eV     1   --> A_1  D_1  S_1  
     e( 25 - 25) =     11.43084  eV     1   --> A_1  D_1  S_1  
     e( 26 - 26) =     12.39397  eV     1   --> B_2  D_4  S_4  
     e( 27 - 27) =     12.77529  eV     1   --> A_1  D_1  S_1  
     e( 28 - 28) =     13.47609  eV     1   --> B_1  D_3  S_3  
     e( 29 - 29) =     13.81823  eV     1   --> B_2  D_4  S_4  
     e( 30 - 30) =     13.93261  eV     1   --> A_2  D_2  S_2  
     e( 31 - 31) =     14.99264  eV     1   --> A_1  D_1  S_1  
     e( 32 - 32) =     15.10122  eV     1   --> B_1  D_3  S_3  
     e( 33 - 33) =     15.43689  eV     1   --> B_2  D_4  S_4  
     e( 34 - 34) =     17.31454  eV     1   --> A_1  D_1  S_1  
     e( 35 - 35) =     17.82376  eV     1   --> A_1  D_1  S_1  
     e( 36 - 36) =     17.83861  eV     1   --> A_2  D_2  S_2  
     e( 37 - 37) =     17.93563  eV     1   --> B_2  D_4  S_4  
     e( 38 - 38) =     19.20120  eV     1   --> A_1  D_1  S_1  
     e( 39 - 39) =     20.25551  eV     1   --> B_2  D_4  S_4  
     e( 40 - 40) =     20.47160  eV     1   --> B_2  D_4  S_4  

 **************************************************************************

 **************************************************************************

                    xk=(   0.25000,   0.14434,   0.00000  )

     Band symmetry, C_2v (mm2)  point group:

     e(  1 -  1) =    -59.98751  eV     1   --> A_1  D_1  S_1  
     e(  2 -  2) =    -34.45521  eV     1   --> B_2  D_4  S_4  
     e(  3 -  3) =    -34.43688  eV     1   --> A_1  D_1  S_1  
     e(  4 -  4) =    -34.24795  eV     1   --> B_1  D_3  S_3  
     e(  5 -  5) =    -13.00288  eV     1   --> A_1  D_1  S_1  
     e(  6 -  6) =    -12.16476  eV     1   --> B_2  D_4  S_4  
     e(  7 -  7) =     -4.84702  eV     1   --> A_1  D_1  S_1  
     e(  8 -  8) =     -3.47685  eV     1   --> A_1  D_1  S_1  
     e(  9 -  9) =     -3.39005  eV     1   --> B_2  D_4  S_4  
     e( 10 - 10) =     -2.14387  eV     1   --> A_2  D_2  S_2  
     e( 11 - 11) =     -1.34135  eV     1   --> B_1  D_3  S_3  
     e( 12 - 12) =     -0.95223  eV     1   --> B_2  D_4  S_4  
     e( 13 - 13) =     -0.43304  eV     1   --> A_1  D_1  S_1  
     e( 14 - 14) =      2.57463  eV     1   --> A_1  D_1  S_1  
     e( 15 - 15) =      2.92242  eV     1   --> B_1  D_3  S_3  
     e( 16 - 16) =      3.43550  eV     1   --> B_2  D_4  S_4  
     e( 17 - 17) =      4.43623  eV     1   --> A_2  D_2  S_2  
     e( 18 - 18) =      6.37448  eV     1   --> A_1  D_1  S_1  
     e( 19 - 19) =      6.97963  eV     1   --> B_2  D_4  S_4  
     e( 20 - 20) =      7.83779  eV     1   --> A_1  D_1  S_1  
     e( 21 - 21) =      9.14731  eV     1   --> A_1  D_1  S_1  
     e( 22 - 22) =      9.18046  eV     1   --> B_2  D_4  S_4  
     e( 23 - 23) =     10.16174  eV     1   --> B_2  D_4  S_4  
     e( 24 - 24) =     10.22090  eV     1   --> A_1  D_1  S_1  
     e( 25 - 25) =     11.56245  eV     1   --> A_1  D_1  S_1  
     e( 26 - 26) =     12.41763  eV     1   --> B_2  D_4  S_4  
     e( 27 - 27) =     12.77491  eV     1   --> A_1  D_1  S_1  
     e( 28 - 28) =     13.61479  eV     1   --> B_1  D_3  S_3  
     e( 29 - 29) =     13.93732  eV     1   --> B_2  D_4  S_4  
     e( 30 - 30) =     14.06544  eV     1   --> A_2  D_2  S_2  
     e( 31 - 31) =     14.91980  eV     1   --> A_1  D_1  S_1  
     e( 32 - 32) =     15.02235  eV     1   --> B_1  D_3  S_3  
     e( 33 - 33) =     15.57891  eV     1   --> B_2  D_4  S_4  
     e( 34 - 34) =     16.82601  eV     1   --> A_1  D_1  S_1  
     e( 35 - 35) =     17.48547  eV     1   --> B_2  D_4  S_4  
     e( 36 - 36) =     17.91580  eV     1   --> A_1  D_1  S_1  
     e( 37 - 37) =     17.94025  eV     1   --> A_2  D_2  S_2  
     e( 38 - 38) =     18.77373  eV     1   --> A_1  D_1  S_1  
     e( 39 - 39) =     19.87707  eV     1   --> B_2  D_4  S_4  
     e( 40 - 40) =     20.63671  eV     1   --> B_2  D_4  S_4  

 **************************************************************************

 **************************************************************************

                    xk=(   0.26667,   0.15396,   0.00000  )

     Band symmetry, C_2v (mm2)  point group:

     e(  1 -  1) =    -59.98560  eV     1   --> A_1  D_1  S_1  
     e(  2 -  2) =    -34.46225  eV     1   --> A_1  D_1  S_1  
     e(  3 -  3) =    -34.45010  eV     1   --> B_2  D_4  S_4  
     e(  4 -  4) =    -34.25398  eV     1   --> B_1  D_3  S_3  
     e(  5 -  5) =    -12.89478  eV     1   --> A_1  D_1  S_1  
     e(  6 -  6) =    -12.12239  eV     1   --> B_2  D_4  S_4  
     e(  7 -  7) =     -4.86515  eV     1   --> A_1  D_1  S_1  
     e(  8 -  8) =     -3.52477  eV     1   --> B_2  D_4  S_4  
     e(  9 -  9) =     -3.51176  eV     1   --> A_1  D_1  S_1  
     e( 10 - 10) =     -2.23060  eV     1   --> A_2  D_2  S_2  
     e( 11 - 11) =     -1.24161  eV     1   --> B_1  D_3  S_3  
     e( 12 - 12) =     -1.02352  eV     1   --> B_2  D_4  S_4  
     e( 13 - 13) =     -0.51814  eV     1   --> A_1  D_1  S_1  
     e( 14 - 14) =      2.59325  eV     1   --> A_1  D_1  S_1  
     e( 15 - 15) =      2.87992  eV     1   --> B_1  D_3  S_3  
     e( 16 - 16) =      3.53264  eV     1   --> B_2  D_4  S_4  
     e( 17 - 17) =      4.51121  eV     1   --> A_2  D_2  S_2  
     e( 18 - 18) =      6.53863  eV     1   --> A_1  D_1  S_1  
     e( 19 - 19) =      7.12687  eV     1   --> B_2  D_4  S_4  
     e( 20 - 20) =      7.93819  eV     1   --> A_1  D_1  S_1  
     e( 21 - 21) =      9.08296  eV     1   --> B_2  D_4  S_4  
     e( 22 - 22) =      9.08909  eV     1   --> A_1  D_1  S_1  
     e( 23 - 23) =     10.20290  eV     1   --> A_1  D_1  S_1  
     e( 24 - 24) =     10.20899  eV     1   --> B_2  D_4  S_4  
     e( 25 - 25) =     11.71438  eV     1   --> A_1  D_1  S_1  
     e( 26 - 26) =     12.38665  eV     1   --> B_2  D_4  S_4  
     e( 27 - 27) =     12.81242  eV     1   --> A_1  D_1  S_1  
     e( 28 - 28) =     13.65297  eV     1   --> B_1  D_3  S_3  
     e( 29 - 29) =     14.10678  eV     1   --> B_2  D_4  S_4  
     e( 30 - 30) =     14.21140  eV     1   --> A_2  D_2  S_2  
     e( 31 - 31) =     14.86553  eV     1   --> A_1  D_1  S_1  
     e( 32 - 32) =     15.05161  eV     1   --> B_1  D_3  S_3  
     e( 33 - 33) =     15.73561  eV     1   --> B_2  D_4  S_4  
     e( 34 - 34) =     16.33635  eV     1   --> A_1  D_1  S_1  
     e( 35 - 35) =     17.06418  eV     1   --> B_2  D_4  S_4  
     e( 36 - 36) =     17.94750  eV     1   --> A_1  D_1  S_1  
     e( 37 - 37) =     18.03579  eV     1   --> A_2  D_2  S_2  
     e( 38 - 38) =     18.43389  eV     1   --> A_1  D_1  S_1  
     e( 39 - 39) =     19.49543  eV     1   --> B_2  D_4  S_4  
     e( 40 - 40) =     20.78893  eV     1   --> B_2  D_4  S_4  

 **************************************************************************

 **************************************************************************

                    xk=(   0.28333,   0.16358,   0.00000  )

     Band symmetry, C_2v (mm2)  point group:

     e(  1 -  1) =    -59.98252  eV     1   --> A_1  D_1  S_1  
     e(  2 -  2) =    -34.48689  eV     1   --> A_1  D_1  S_1  
     e(  3 -  3) =    -34.44488  eV     1   --> B_2  D_4  S_4  
     e(  4 -  4) =    -34.25973  eV     1   --> B_1  D_3  S_3  
     e(  5 -  5) =    -12.78492  eV     1   --> A_1  D_1  S_1  
     e(  6 -  6) =    -12.07959  eV     1   --> B_2  D_4  S_4  
     e(  7 -  7) =     -4.90525  eV     1   --> A_1  D_1  S_1  
     e(  8 -  8) =     -3.65667  eV     1   --> B_2  D_4  S_4  
     e(  9 -  9) =     -3.53261  eV     1   --> A_1  D_1  S_1  
     e( 10 - 10) =     -2.31345  eV     1   --> A_2  D_2  S_2  
     e( 11 - 11) =     -1.14325  eV     1   --> B_1  D_3  S_3  
     e( 12 - 12) =     -1.09423  eV     1   --> B_2  D_4  S_4  
     e( 13 - 13) =     -0.59026  eV     1   --> A_1  D_1  S_1  
     e( 14 - 14) =      2.62588  eV     1   --> A_1  D_1  S_1  
     e( 15 - 15) =      2.84463  eV     1   --> B_1  D_3  S_3  
     e( 16 - 16) =      3.63324  eV     1   --> B_2  D_4  S_4  
     e( 17 - 17) =      4.58005  eV     1   --> A_2  D_2  S_2  
     e( 18 - 18) =      6.71068  eV     1   --> A_1  D_1  S_1  
     e( 19 - 19) =      7.27571  eV     1   --> B_2  D_4  S_4  
     e( 20 - 20) =      8.03602  eV     1   --> A_1  D_1  S_1  
     e( 21 - 21) =      8.97826  eV     1   --> B_2  D_4  S_4  
     e( 22 - 22) =      8.98726  eV     1   --> A_1  D_1  S_1  
     e( 23 - 23) =     10.18087  eV     1   --> A_1  D_1  S_1  
     e( 24 - 24) =     10.28216  eV     1   --> B_2  D_4  S_4  
     e( 25 - 25) =     11.85433  eV     1   --> A_1  D_1  S_1  
     e( 26 - 26) =     12.32388  eV     1   --> B_2  D_4  S_4  
     e( 27 - 27) =     12.89318  eV     1   --> A_1  D_1  S_1  
     e( 28 - 28) =     13.58559  eV     1   --> B_1  D_3  S_3  
     e( 29 - 29) =     14.30165  eV     1   --> B_2  D_4  S_4  
     e( 30 - 30) =     14.36971  eV     1   --> A_2  D_2  S_2  
     e( 31 - 31) =     14.83875  eV     1   --> A_1  D_1  S_1  
     e( 32 - 32) =     15.19458  eV     1   --> B_1  D_3  S_3  
     e( 33 - 33) =     15.85980  eV     1   --> A_1  D_1  S_1  
     e( 34 - 34) =     15.87779  eV     1   --> B_2  D_4  S_4  
     e( 35 - 35) =     16.70047  eV     1   --> B_2  D_4  S_4  
     e( 36 - 36) =     17.73041  eV     1   --> A_1  D_1  S_1  
     e( 37 - 37) =     18.12502  eV     1   --> A_2  D_2  S_2  
     e( 38 - 38) =     18.36061  eV     1   --> A_1  D_1  S_1  
     e( 39 - 39) =     19.12846  eV     1   --> B_2  D_4  S_4  
     e( 40 - 40) =     20.89716  eV     1   -->   ?

 **************************************************************************

 **************************************************************************

                    xk=(   0.30000,   0.17321,   0.00000  )

     Band symmetry, C_2v (mm2)  point group:

     e(  1 -  1) =    -59.98005  eV     1   --> A_1  D_1  S_1  
     e(  2 -  2) =    -34.51133  eV     1   --> A_1  D_1  S_1  
     e(  3 -  3) =    -34.43965  eV     1   --> B_2  D_4  S_4  
     e(  4 -  4) =    -34.26535  eV     1   --> B_1  D_3  S_3  
     e(  5 -  5) =    -12.67440  eV     1   --> A_1  D_1  S_1  
     e(  6 -  6) =    -12.03682  eV     1   --> B_2  D_4  S_4  
     e(  7 -  7) =     -4.96336  eV     1   --> A_1  D_1  S_1  
     e(  8 -  8) =     -3.78483  eV     1   --> B_2  D_4  S_4  
     e(  9 -  9) =     -3.54580  eV     1   --> A_1  D_1  S_1  
     e( 10 - 10) =     -2.39190  eV     1   --> A_2  D_2  S_2  
     e( 11 - 11) =     -1.16250  eV     1   --> B_2  D_4  S_4  
     e( 12 - 12) =     -1.04761  eV     1   --> B_1  D_3  S_3  
     e( 13 - 13) =     -0.64444  eV     1   --> A_1  D_1  S_1  
     e( 14 - 14) =      2.67033  eV     1   --> A_1  D_1  S_1  
     e( 15 - 15) =      2.81704  eV     1   --> B_1  D_3  S_3  
     e( 16 - 16) =      3.73425  eV     1   --> B_2  D_4  S_4  
     e( 17 - 17) =      4.64249  eV     1   --> A_2  D_2  S_2  
     e( 18 - 18) =      6.88940  eV     1   --> A_1  D_1  S_1  
     e( 19 - 19) =      7.42259  eV     1   --> B_2  D_4  S_4  
     e( 20 - 20) =      8.12881  eV     1   --> A_1  D_1  S_1  
     e( 21 - 21) =      8.84813  eV     1   --> A_1  D_1  S_1  
     e( 22 - 22) =      8.88390  eV     1   --> B_2  D_4  S_4  
     e( 23 - 23) =     10.17142  eV     1   --> A_1  D_1  S_1  
     e( 24 - 24) =     10.36441  eV     1   --> B_2  D_4  S_4  
     e( 25 - 25) =     11.94941  eV     1   --> A_1  D_1  S_1  
     e( 26 - 26) =     12.24986  eV     1   --> B_2  D_4  S_4  
     e( 27 - 27) =     13.01950  eV     1   --> A_1  D_1  S_1  
     e( 28 - 28) =     13.44637  eV     1   --> B_1  D_3  S_3  
     e( 29 - 29) =     14.49373  eV     1   --> B_2  D_4  S_4  
     e( 30 - 30) =     14.53866  eV     1   --> A_2  D_2  S_2  
     e( 31 - 31) =     14.83977  eV     1   --> A_1  D_1  S_1  
     e( 32 - 32) =     15.40721  eV     1   --> A_1  D_1  S_1  
     e( 33 - 33) =     15.41682  eV     1   --> B_1  D_3  S_3  
     e( 34 - 34) =     15.90140  eV     1   --> B_2  D_4  S_4  
     e( 35 - 35) =     16.50247  eV     1   --> B_2  D_4  S_4  
     e( 36 - 36) =     17.37424  eV     1   --> A_1  D_1  S_1  
     e( 37 - 37) =     18.20737  eV     1   --> A_2  D_2  S_2  
     e( 38 - 38) =     18.44363  eV     1   --> A_1  D_1  S_1  
     e( 39 - 39) =     18.78415  eV     1   --> B_2  D_4  S_4  
     e( 40 - 40) =     20.77912  eV     1   -->   ?

 **************************************************************************

 **************************************************************************

                    xk=(   0.31667,   0.18283,   0.00000  )

     Band symmetry, C_2v (mm2)  point group:

     e(  1 -  1) =    -59.97768  eV     1   --> A_1  D_1  S_1  
     e(  2 -  2) =    -34.53478  eV     1   --> A_1  D_1  S_1  
     e(  3 -  3) =    -34.43482  eV     1   --> B_2  D_4  S_4  
     e(  4 -  4) =    -34.27069  eV     1   --> B_1  D_3  S_3  
     e(  5 -  5) =    -12.56439  eV     1   --> A_1  D_1  S_1  
     e(  6 -  6) =    -11.99459  eV     1   --> B_2  D_4  S_4  
     e(  7 -  7) =     -5.03443  eV     1   --> A_1  D_1  S_1  
     e(  8 -  8) =     -3.90835  eV     1   --> B_2  D_4  S_4  
     e(  9 -  9) =     -3.55796  eV     1   --> A_1  D_1  S_1  
     e( 10 - 10) =     -2.46551  eV     1   --> A_2  D_2  S_2  
     e( 11 - 11) =     -1.22706  eV     1   --> B_2  D_4  S_4  
     e( 12 - 12) =     -0.95600  eV     1   --> B_1  D_3  S_3  
     e( 13 - 13) =     -0.67703  eV     1   --> A_1  D_1  S_1  
     e( 14 - 14) =      2.72461  eV     1   --> A_1  D_1  S_1  
     e( 15 - 15) =      2.79744  eV     1   --> B_1  D_3  S_3  
     e( 16 - 16) =      3.83278  eV     1   --> B_2  D_4  S_4  
     e( 17 - 17) =      4.69850  eV     1   --> A_2  D_2  S_2  
     e( 18 - 18) =      7.07265  eV     1   --> A_1  D_1  S_1  
     e( 19 - 19) =      7.56246  eV     1   --> B_2  D_4  S_4  
     e( 20 - 20) =      8.20866  eV     1   --> A_1  D_1  S_1  
     e( 21 - 21) =      8.68824  eV     1   --> A_1  D_1  S_1  
     e( 22 - 22) =      8.81283  eV     1   --> B_2  D_4  S_4  
     e( 23 - 23) =     10.18413  eV     1   --> A_1  D_1  S_1  
     e( 24 - 24) =     10.44311  eV     1   --> B_2  D_4  S_4  
     e( 25 - 25) =     11.98497  eV     1   --> A_1  D_1  S_1  
     e( 26 - 26) =     12.18029  eV     1   --> B_2  D_4  S_4  
     e( 27 - 27) =     13.18096  eV     1   --> A_1  D_1  S_1  
     e( 28 - 28) =     13.27034  eV     1   --> B_1  D_3  S_3  
     e( 29 - 29) =     14.64551  eV     1   --> B_2  D_4  S_4  
     e( 30 - 30) =     14.71595  eV     1   --> A_2  D_2  S_2  
     e( 31 - 31) =     14.79350  eV     1   --> A_1  D_1  S_1  
     e( 32 - 32) =     15.05953  eV     1   --> A_1  D_1  S_1  
     e( 33 - 33) =     15.68293  eV     1   --> B_1  D_3  S_3  
     e( 34 - 34) =     15.72390  eV     1   --> B_2  D_4  S_4  
     e( 35 - 35) =     16.57026  eV     1   --> B_2  D_4  S_4  
     e( 36 - 36) =     17.01601  eV     1   --> A_1  D_1  S_1  
     e( 37 - 37) =     18.28279  eV     1   --> A_2  D_2  S_2  
     e( 38 - 38) =     18.47092  eV     1   --> B_2  D_4  S_4  
     e( 39 - 39) =     18.54918  eV     1   --> A_1  D_1  S_1  
     e( 40 - 40) =     20.53207  eV     1   -->   ?

 **************************************************************************

 **************************************************************************

                    xk=(   0.33333,   0.19245,   0.00000  )

     Band symmetry, C_2v (mm2)  point group:

     e(  1 -  1) =    -59.97580  eV     1   --> A_1  D_1  S_1  
     e(  2 -  2) =    -34.55721  eV     1   --> A_1  D_1  S_1  
     e(  3 -  3) =    -34.43024  eV     1   --> B_2  D_4  S_4  
     e(  4 -  4) =    -34.27586  eV     1   --> B_1  D_3  S_3  
     e(  5 -  5) =    -12.45622  eV     1   --> A_1  D_1  S_1  
     e(  6 -  6) =    -11.95341  eV     1   --> B_2  D_4  S_4  
     e(  7 -  7) =     -5.11348  eV     1   --> A_1  D_1  S_1  
     e(  8 -  8) =     -4.02618  eV     1   --> B_2  D_4  S_4  
     e(  9 -  9) =     -3.57426  eV     1   --> A_1  D_1  S_1  
     e( 10 - 10) =     -2.53388  eV     1   --> A_2  D_2  S_2  
     e( 11 - 11) =     -1.28686  eV     1   --> B_2  D_4  S_4  
     e( 12 - 12) =     -0.86969  eV     1   --> B_1  D_3  S_3  
     e( 13 - 13) =     -0.68629  eV     1   --> A_1  D_1  S_1  
     e( 14 - 14) =      2.78576  eV     1   --> B_1  D_3  S_3  
     e( 15 - 15) =      2.78681  eV     1   --> A_1  D_1  S_1  
     e( 16 - 16) =      3.92628  eV     1   --> B_2  D_4  S_4  
     e( 17 - 17) =      4.74817  eV     1   --> A_2  D_2  S_2  
     e( 18 - 18) =      7.25634  eV     1   --> A_1  D_1  S_1  
     e( 19 - 19) =      7.68885  eV     1   --> B_2  D_4  S_4  
     e( 20 - 20) =      8.23708  eV     1   --> A_1  D_1  S_1  
     e( 21 - 21) =      8.55960  eV     1   --> A_1  D_1  S_1  
     e( 22 - 22) =      8.77554  eV     1   --> B_2  D_4  S_4  
     e( 23 - 23) =     10.21968  eV     1   --> A_1  D_1  S_1  
     e( 24 - 24) =     10.50823  eV     1   --> B_2  D_4  S_4  
     e( 25 - 25) =     11.96788  eV     1   --> A_1  D_1  S_1  
     e( 26 - 26) =     12.12671  eV     1   --> B_2  D_4  S_4  
     e( 27 - 27) =     13.07914  eV     1   --> B_1  D_3  S_3  
     e( 28 - 28) =     13.34791  eV     1   --> A_1  D_1  S_1  
     e( 29 - 29) =     14.47027  eV     1   --> A_1  D_1  S_1  
     e( 30 - 30) =     14.68747  eV     1   --> B_2  D_4  S_4  
     e( 31 - 31) =     14.89895  eV     1   --> A_2  D_2  S_2  
     e( 32 - 32) =     15.04485  eV     1   --> A_1  D_1  S_1  
     e( 33 - 33) =     15.55190  eV     1   --> B_2  D_4  S_4  
     e( 34 - 34) =     15.97041  eV     1   --> B_1  D_3  S_3  
     e( 35 - 35) =     16.69417  eV     1   --> A_1  D_1  S_1  
     e( 36 - 36) =     16.74633  eV     1   --> B_2  D_4  S_4  
     e( 37 - 37) =     18.20120  eV     1   --> B_2  D_4  S_4  
     e( 38 - 38) =     18.35137  eV     1   --> A_2  D_2  S_2  
     e( 39 - 39) =     18.64740  eV     1   --> A_1  D_1  S_1  
     e( 40 - 40) =     20.28058  eV     1   --> A_1  D_1  S_1  

 **************************************************************************

 **************************************************************************

                    xk=(   0.35000,   0.20207,   0.00000  )

     Band symmetry, C_2v (mm2)  point group:

     e(  1 -  1) =    -59.97383  eV     1   --> A_1  D_1  S_1  
     e(  2 -  2) =    -34.57825  eV     1   --> A_1  D_1  S_1  
     e(  3 -  3) =    -34.42573  eV     1   --> B_2  D_4  S_4  
     e(  4 -  4) =    -34.28080  eV     1   --> B_1  D_3  S_3  
     e(  5 -  5) =    -12.35126  eV     1   --> A_1  D_1  S_1  
     e(  6 -  6) =    -11.91383  eV     1   --> B_2  D_4  S_4  
     e(  7 -  7) =     -5.19622  eV     1   --> A_1  D_1  S_1  
     e(  8 -  8) =     -4.13717  eV     1   --> B_2  D_4  S_4  
     e(  9 -  9) =     -3.59747  eV     1   --> A_1  D_1  S_1  
     e( 10 - 10) =     -2.59665  eV     1   --> A_2  D_2  S_2  
     e( 11 - 11) =     -1.34124  eV     1   --> B_2  D_4  S_4  
     e( 12 - 12) =     -0.78979  eV     1   --> B_1  D_3  S_3  
     e( 13 - 13) =     -0.67263  eV     1   --> A_1  D_1  S_1  
     e( 14 - 14) =      2.78162  eV     1   --> B_1  D_3  S_3  
     e( 15 - 15) =      2.85516  eV     1   --> A_1  D_1  S_1  
     e( 16 - 16) =      4.01253  eV     1   --> B_2  D_4  S_4  
     e( 17 - 17) =      4.79168  eV     1   --> A_2  D_2  S_2  
     e( 18 - 18) =      7.43034  eV     1   --> A_1  D_1  S_1  
     e( 19 - 19) =      7.79529  eV     1   --> B_2  D_4  S_4  
     e( 20 - 20) =      8.13717  eV     1   --> A_1  D_1  S_1  
     e( 21 - 21) =      8.56012  eV     1   --> A_1  D_1  S_1  
     e( 22 - 22) =      8.77956  eV     1   --> B_2  D_4  S_4  
     e( 23 - 23) =     10.27279  eV     1   --> A_1  D_1  S_1  
     e( 24 - 24) =     10.55241  eV     1   --> B_2  D_4  S_4  
     e( 25 - 25) =     11.91571  eV     1   --> A_1  D_1  S_1  
     e( 26 - 26) =     12.09671  eV     1   --> B_2  D_4  S_4  
     e( 27 - 27) =     12.88527  eV     1   --> B_1  D_3  S_3  
     e( 28 - 28) =     13.45850  eV     1   --> A_1  D_1  S_1  
     e( 29 - 29) =     14.13354  eV     1   --> A_1  D_1  S_1  
     e( 30 - 30) =     14.55662  eV     1   --> B_2  D_4  S_4  
     e( 31 - 31) =     15.08449  eV     1   --> A_2  D_2  S_2  
     e( 32 - 32) =     15.10840  eV     1   --> A_1  D_1  S_1  
     e( 33 - 33) =     15.51961  eV     1   --> B_2  D_4  S_4  
     e( 34 - 34) =     16.26543  eV     1   --> B_1  D_3  S_3  
     e( 35 - 35) =     16.44421  eV     1   --> A_1  D_1  S_1  
     e( 36 - 36) =     16.93250  eV     1   --> B_2  D_4  S_4  
     e( 37 - 37) =     17.99630  eV     1   --> B_2  D_4  S_4  
     e( 38 - 38) =     18.41349  eV     1   --> A_2  D_2  S_2  
     e( 39 - 39) =     18.72420  eV     1   --> A_1  D_1  S_1  
     e( 40 - 40) =     20.04779  eV     1   --> A_1  D_1  S_1  

 **************************************************************************

 **************************************************************************

                    xk=(   0.36667,   0.21170,   0.00000  )

     Band symmetry, C_2v (mm2)  point group:

     e(  1 -  1) =    -59.97191  eV     1   --> A_1  D_1  S_1  
     e(  2 -  2) =    -34.59746  eV     1   --> A_1  D_1  S_1  
     e(  3 -  3) =    -34.42178  eV     1   --> B_2  D_4  S_4  
     e(  4 -  4) =    -34.28531  eV     1   --> B_1  D_3  S_3  
     e(  5 -  5) =    -12.25103  eV     1   --> A_1  D_1  S_1  
     e(  6 -  6) =    -11.87639  eV     1   --> B_2  D_4  S_4  
     e(  7 -  7) =     -5.27905  eV     1   --> A_1  D_1  S_1  
     e(  8 -  8) =     -4.24025  eV     1   --> B_2  D_4  S_4  
     e(  9 -  9) =     -3.62800  eV     1   --> A_1  D_1  S_1  
     e( 10 - 10) =     -2.65351  eV     1   --> A_2  D_2  S_2  
     e( 11 - 11) =     -1.38990  eV     1   --> B_2  D_4  S_4  
     e( 12 - 12) =     -0.71717  eV     1   --> B_1  D_3  S_3  
     e( 13 - 13) =     -0.63879  eV     1   --> A_1  D_1  S_1  
     e( 14 - 14) =      2.78428  eV     1   --> B_1  D_3  S_3  
     e( 15 - 15) =      2.92791  eV     1   --> A_1  D_1  S_1  
     e( 16 - 16) =      4.08972  eV     1   --> B_2  D_4  S_4  
     e( 17 - 17) =      4.82935  eV     1   --> A_2  D_2  S_2  
     e( 18 - 18) =      7.55691  eV     1   --> A_1  D_1  S_1  
     e( 19 - 19) =      7.87880  eV     1   --> B_2  D_4  S_4  
     e( 20 - 20) =      7.99717  eV     1   --> A_1  D_1  S_1  
     e( 21 - 21) =      8.64965  eV     1   --> A_1  D_1  S_1  
     e( 22 - 22) =      8.82648  eV     1   --> B_2  D_4  S_4  
     e( 23 - 23) =     10.33377  eV     1   --> A_1  D_1  S_1  
     e( 24 - 24) =     10.57279  eV     1   --> B_2  D_4  S_4  
     e( 25 - 25) =     11.84852  eV     1   --> A_1  D_1  S_1  
     e( 26 - 26) =     12.09208  eV     1   --> B_2  D_4  S_4  
     e( 27 - 27) =     12.69645  eV     1   --> B_1  D_3  S_3  
     e( 28 - 28) =     13.35695  eV     1   --> A_1  D_1  S_1  
     e( 29 - 29) =     13.99446  eV     1   --> A_1  D_1  S_1  
     e( 30 - 30) =     14.31578  eV     1   --> B_2  D_4  S_4  
     e( 31 - 31) =     15.12379  eV     1   --> A_1  D_1  S_1  
     e( 32 - 32) =     15.26889  eV     1   --> A_2  D_2  S_2  
     e( 33 - 33) =     15.57137  eV     1   --> B_2  D_4  S_4  
     e( 34 - 34) =     16.31449  eV     1   --> A_1  D_1  S_1  
     e( 35 - 35) =     16.55857  eV     1   --> B_1  D_3  S_3  
     e( 36 - 36) =     17.08159  eV     1   --> B_2  D_4  S_4  
     e( 37 - 37) =     17.89160  eV     1   --> B_2  D_4  S_4  
     e( 38 - 38) =     18.46996  eV     1   --> A_2  D_2  S_2  
     e( 39 - 39) =     18.76712  eV     1   --> A_1  D_1  S_1  
     e( 40 - 40) =     19.85571  eV     1   --> A_1  D_1  S_1  

 **************************************************************************

 **************************************************************************

                    xk=(   0.38333,   0.22132,   0.00000  )

     Band symmetry, C_2v (mm2)  point group:

     e(  1 -  1) =    -59.97005  eV     1   --> A_1  D_1  S_1  
     e(  2 -  2) =    -34.61487  eV     1   --> A_1  D_1  S_1  
     e(  3 -  3) =    -34.41828  eV     1   --> B_2  D_4  S_4  
     e(  4 -  4) =    -34.28924  eV     1   --> B_1  D_3  S_3  
     e(  5 -  5) =    -12.15710  eV     1   --> A_1  D_1  S_1  
     e(  6 -  6) =    -11.84168  eV     1   --> B_2  D_4  S_4  
     e(  7 -  7) =     -5.35908  eV     1   --> A_1  D_1  S_1  
     e(  8 -  8) =     -4.33428  eV     1   --> B_2  D_4  S_4  
     e(  9 -  9) =     -3.66443  eV     1   --> A_1  D_1  S_1  
     e( 10 - 10) =     -2.70422  eV     1   --> A_2  D_2  S_2  
     e( 11 - 11) =     -1.43255  eV     1   --> B_2  D_4  S_4  
     e( 12 - 12) =     -0.65249  eV     1   --> B_1  D_3  S_3  
     e( 13 - 13) =     -0.58919  eV     1   --> A_1  D_1  S_1  
     e( 14 - 14) =      2.79262  eV     1   --> B_1  D_3  S_3  
     e( 15 - 15) =      3.00326  eV     1   --> A_1  D_1  S_1  
     e( 16 - 16) =      4.15672  eV     1   --> B_2  D_4  S_4  
     e( 17 - 17) =      4.86150  eV     1   --> A_2  D_2  S_2  
     e( 18 - 18) =      7.52332  eV     1   --> A_1  D_1  S_1  
     e( 19 - 19) =      7.94275  eV     1   --> B_2  D_4  S_4  
     e( 20 - 20) =      7.99254  eV     1   --> A_1  D_1  S_1  
     e( 21 - 21) =      8.77447  eV     1   --> A_1  D_1  S_1  
     e( 22 - 22) =      8.90891  eV     1   --> B_2  D_4  S_4  
     e( 23 - 23) =     10.38936  eV     1   --> A_1  D_1  S_1  
     e( 24 - 24) =     10.57260  eV     1   --> B_2  D_4  S_4  
     e( 25 - 25) =     11.78728  eV     1   --> A_1  D_1  S_1  
     e( 26 - 26) =     12.10700  eV     1   --> B_2  D_4  S_4  
     e( 27 - 27) =     12.51812  eV     1   --> B_1  D_3  S_3  
     e( 28 - 28) =     13.04638  eV     1   --> A_1  D_1  S_1  
     e( 29 - 29) =     14.03347  eV     1   --> A_1  D_1  S_1  
     e( 30 - 30) =     14.04967  eV     1   --> B_2  D_4  S_4  
     e( 31 - 31) =     15.06541  eV     1   --> A_1  D_1  S_1  
     e( 32 - 32) =     15.44800  eV     1   --> A_2  D_2  S_2  
     e( 33 - 33) =     15.61776  eV     1   --> B_2  D_4  S_4  
     e( 34 - 34) =     16.32350  eV     1   --> A_1  D_1  S_1  
     e( 35 - 35) =     16.84192  eV     1   --> B_1  D_3  S_3  
     e( 36 - 36) =     17.16613  eV     1   --> B_2  D_4  S_4  
     e( 37 - 37) =     17.91580  eV     1   --> B_2  D_4  S_4  
     e( 38 - 38) =     18.52124  eV     1   --> A_2  D_2  S_2  
     e( 39 - 39) =     18.76923  eV     1   --> A_1  D_1  S_1  
     e( 40 - 40) =     19.72141  eV     1   --> A_1  D_1  S_1  

 **************************************************************************

 **************************************************************************

                    xk=(   0.40000,   0.23094,   0.00000  )

     Band symmetry, C_2v (mm2)  point group:

     e(  1 -  1) =    -59.96868  eV     1   --> A_1  D_1  S_1  
     e(  2 -  2) =    -34.63055  eV     1   --> A_1  D_1  S_1  
     e(  3 -  3) =    -34.41495  eV     1   --> B_2  D_4  S_4  
     e(  4 -  4) =    -34.29289  eV     1   --> B_1  D_3  S_3  
     e(  5 -  5) =    -12.07113  eV     1   --> A_1  D_1  S_1  
     e(  6 -  6) =    -11.81023  eV     1   --> B_2  D_4  S_4  
     e(  7 -  7) =     -5.43380  eV     1   --> A_1  D_1  S_1  
     e(  8 -  8) =     -4.41827  eV     1   --> B_2  D_4  S_4  
     e(  9 -  9) =     -3.70401  eV     1   --> A_1  D_1  S_1  
     e( 10 - 10) =     -2.74858  eV     1   --> A_2  D_2  S_2  
     e( 11 - 11) =     -1.46920  eV     1   --> B_2  D_4  S_4  
     e( 12 - 12) =     -0.59634  eV     1   --> B_1  D_3  S_3  
     e( 13 - 13) =     -0.52944  eV     1   --> A_1  D_1  S_1  
     e( 14 - 14) =      2.80515  eV     1   --> B_1  D_3  S_3  
     e( 15 - 15) =      3.07917  eV     1   --> A_1  D_1  S_1  
     e( 16 - 16) =      4.21294  eV     1   --> B_2  D_4  S_4  
     e( 17 - 17) =      4.88847  eV     1   --> A_2  D_2  S_2  
     e( 18 - 18) =      7.35363  eV     1   --> A_1  D_1  S_1  
     e( 19 - 19) =      7.99468  eV     1   --> B_2  D_4  S_4  
     e( 20 - 20) =      8.11559  eV     1   --> A_1  D_1  S_1  
     e( 21 - 21) =      8.92546  eV     1   --> A_1  D_1  S_1  
     e( 22 - 22) =      9.01226  eV     1   --> B_2  D_4  S_4  
     e( 23 - 23) =     10.42439  eV     1   --> A_1  D_1  S_1  
     e( 24 - 24) =     10.56104  eV     1   --> B_2  D_4  S_4  
     e( 25 - 25) =     11.75113  eV     1   --> A_1  D_1  S_1  
     e( 26 - 26) =     12.12785  eV     1   --> B_2  D_4  S_4  
     e( 27 - 27) =     12.35470  eV     1   --> B_1  D_3  S_3  
     e( 28 - 28) =     12.68962  eV     1   --> A_1  D_1  S_1  
     e( 29 - 29) =     13.80008  eV     1   --> B_2  D_4  S_4  
     e( 30 - 30) =     14.04961  eV     1   --> A_1  D_1  S_1  
     e( 31 - 31) =     15.00441  eV     1   --> A_1  D_1  S_1  
     e( 32 - 32) =     15.61711  eV     1   --> A_2  D_2  S_2  
     e( 33 - 33) =     15.61876  eV     1   --> B_2  D_4  S_4  
     e( 34 - 34) =     16.41429  eV     1   --> A_1  D_1  S_1  
     e( 35 - 35) =     17.10739  eV     1   --> B_1  D_3  S_3  
     e( 36 - 36) =     17.21537  eV     1   --> B_2  D_4  S_4  
     e( 37 - 37) =     18.03585  eV     1   --> B_2  D_4  S_4  
     e( 38 - 38) =     18.56755  eV     1   --> A_2  D_2  S_2  
     e( 39 - 39) =     18.74234  eV     1   --> A_1  D_1  S_1  
     e( 40 - 40) =     19.64640  eV     1   --> A_1  D_1  S_1  

 **************************************************************************

 **************************************************************************

                    xk=(   0.41667,   0.24056,   0.00000  )

     Band symmetry, C_2v (mm2)  point group:

     e(  1 -  1) =    -59.96714  eV     1   --> A_1  D_1  S_1  
     e(  2 -  2) =    -34.64404  eV     1   --> A_1  D_1  S_1  
     e(  3 -  3) =    -34.41207  eV     1   --> B_2  D_4  S_4  
     e(  4 -  4) =    -34.29589  eV     1   --> B_1  D_3  S_3  
     e(  5 -  5) =    -11.99475  eV     1   --> A_1  D_1  S_1  
     e(  6 -  6) =    -11.78258  eV     1   --> B_2  D_4  S_4  
     e(  7 -  7) =     -5.50110  eV     1   --> A_1  D_1  S_1  
     e(  8 -  8) =     -4.49121  eV     1   --> B_2  D_4  S_4  
     e(  9 -  9) =     -3.74374  eV     1   --> A_1  D_1  S_1  
     e( 10 - 10) =     -2.78638  eV     1   --> A_2  D_2  S_2  
     e( 11 - 11) =     -1.49989  eV     1   --> B_2  D_4  S_4  
     e( 12 - 12) =     -0.54886  eV     1   --> B_1  D_3  S_3  
     e( 13 - 13) =     -0.46563  eV     1   --> A_1  D_1  S_1  
     e( 14 - 14) =      2.82022  eV     1   --> B_1  D_3  S_3  
     e( 15 - 15) =      3.15317  eV     1   --> A_1  D_1  S_1  
     e( 16 - 16) =      4.25846  eV     1   --> B_2  D_4  S_4  
     e( 17 - 17) =      4.91059  eV     1   --> A_2  D_2  S_2  
     e( 18 - 18) =      7.16018  eV     1   --> A_1  D_1  S_1  
     e( 19 - 19) =      8.04127  eV     1   --> B_2  D_4  S_4  
     e( 20 - 20) =      8.26025  eV     1   --> A_1  D_1  S_1  
     e( 21 - 21) =      9.10193  eV     1   --> A_1  D_1  S_1  
     e( 22 - 22) =      9.11957  eV     1   --> B_2  D_4  S_4  
     e( 23 - 23) =     10.42755  eV     1   --> A_1  D_1  S_1  
     e( 24 - 24) =     10.55067  eV     1   --> B_2  D_4  S_4  
     e( 25 - 25) =     11.74597  eV     1   --> A_1  D_1  S_1  
     e( 26 - 26) =     12.13509  eV     1   --> B_2  D_4  S_4  
     e( 27 - 27) =     12.20996  eV     1   --> B_1  D_3  S_3  
     e( 28 - 28) =     12.34659  eV     1   --> A_1  D_1  S_1  
     e( 29 - 29) =     13.59167  eV     1   --> B_2  D_4  S_4  
     e( 30 - 30) =     13.95851  eV     1   --> A_1  D_1  S_1  
     e( 31 - 31) =     15.02624  eV     1   --> A_1  D_1  S_1  
     e( 32 - 32) =     15.56995  eV     1   --> B_2  D_4  S_4  
     e( 33 - 33) =     15.77151  eV     1   --> A_2  D_2  S_2  
     e( 34 - 34) =     16.50924  eV     1   --> A_1  D_1  S_1  
     e( 35 - 35) =     17.27361  eV     1   --> B_2  D_4  S_4  
     e( 36 - 36) =     17.34753  eV     1   --> B_1  D_3  S_3  
     e( 37 - 37) =     18.18737  eV     1   --> B_2  D_4  S_4  
     e( 38 - 38) =     18.60911  eV     1   --> A_2  D_2  S_2  
     e( 39 - 39) =     18.71984  eV     1   --> A_1  D_1  S_1  
     e( 40 - 40) =     19.61340  eV     1   -->   ?

 **************************************************************************

 **************************************************************************

                    xk=(   0.43333,   0.25019,   0.00000  )

     Band symmetry, C_2v (mm2)  point group:

     e(  1 -  1) =    -59.96561  eV     1   --> A_1  D_1  S_1  
     e(  2 -  2) =    -34.65502  eV     1   --> A_1  D_1  S_1  
     e(  3 -  3) =    -34.40966  eV     1   --> B_2  D_4  S_4  
     e(  4 -  4) =    -34.29848  eV     1   --> B_1  D_3  S_3  
     e(  5 -  5) =    -11.92959  eV     1   --> A_1  D_1  S_1  
     e(  6 -  6) =    -11.75920  eV     1   --> B_2  D_4  S_4  
     e(  7 -  7) =     -5.55905  eV     1   --> A_1  D_1  S_1  
     e(  8 -  8) =     -4.55218  eV     1   --> B_2  D_4  S_4  
     e(  9 -  9) =     -3.78060  eV     1   --> A_1  D_1  S_1  
     e( 10 - 10) =     -2.81751  eV     1   --> A_2  D_2  S_2  
     e( 11 - 11) =     -1.52474  eV     1   --> B_2  D_4  S_4  
     e( 12 - 12) =     -0.51022  eV     1   --> B_1  D_3  S_3  
     e( 13 - 13) =     -0.40371  eV     1   --> A_1  D_1  S_1  
     e( 14 - 14) =      2.83594  eV     1   --> B_1  D_3  S_3  
     e( 15 - 15) =      3.22225  eV     1   --> A_1  D_1  S_1  
     e( 16 - 16) =      4.29379  eV     1   --> B_2  D_4  S_4  
     e( 17 - 17) =      4.92821  eV     1   --> A_2  D_2  S_2  
     e( 18 - 18) =      6.97879  eV     1   --> A_1  D_1  S_1  
     e( 19 - 19) =      8.08555  eV     1   --> B_2  D_4  S_4  
     e( 20 - 20) =      8.39559  eV     1   --> A_1  D_1  S_1  
     e( 21 - 21) =      9.21522  eV     1   --> B_2  D_4  S_4  
     e( 22 - 22) =      9.30154  eV     1   --> A_1  D_1  S_1  
     e( 23 - 23) =     10.39979  eV     1   --> A_1  D_1  S_1  
     e( 24 - 24) =     10.55428  eV     1   --> B_2  D_4  S_4  
     e( 25 - 25) =     11.71028  eV     1   --> A_1  D_1  S_1  
     e( 26 - 26) =     12.08674  eV     1   --> B_1  D_3  S_3  
     e( 27 - 27) =     12.09667  eV     1   --> A_1  D_1  S_1  
     e( 28 - 28) =     12.10937  eV     1   --> B_2  D_4  S_4  
     e( 29 - 29) =     13.44267  eV     1   --> B_2  D_4  S_4  
     e( 30 - 30) =     13.77537  eV     1   --> A_1  D_1  S_1  
     e( 31 - 31) =     15.13256  eV     1   --> A_1  D_1  S_1  
     e( 32 - 32) =     15.48783  eV     1   --> B_2  D_4  S_4  
     e( 33 - 33) =     15.90605  eV     1   --> A_2  D_2  S_2  
     e( 34 - 34) =     16.55680  eV     1   --> A_1  D_1  S_1  
     e( 35 - 35) =     17.34831  eV     1   --> B_2  D_4  S_4  
     e( 36 - 36) =     17.55474  eV     1   --> B_1  D_3  S_3  
     e( 37 - 37) =     18.32857  eV     1   --> B_2  D_4  S_4  
     e( 38 - 38) =     18.64581  eV     1   --> A_2  D_2  S_2  
     e( 39 - 39) =     18.73431  eV     1   --> A_1  D_1  S_1  
     e( 40 - 40) =     19.60124  eV     1   --> A_1  D_1  S_1  

 **************************************************************************

 **************************************************************************

                    xk=(   0.45000,   0.25981,   0.00000  )

     Band symmetry, C_2v (mm2)  point group:

     e(  1 -  1) =    -59.96473  eV     1   --> A_1  D_1  S_1  
     e(  2 -  2) =    -34.66390  eV     1   --> A_1  D_1  S_1  
     e(  3 -  3) =    -34.40764  eV     1   --> B_2  D_4  S_4  
[...]
     e( 18 - 18) =      7.74783  eV     1   --> A              
     e( 19 - 19) =      7.96505  eV     1   --> E*             
     e( 20 - 20) =      9.88419  eV     1   --> E*             
     e( 21 - 21) =     11.01299  eV     1   --> E              
     e( 22 - 22) =     11.57694  eV     1   --> A              
     e( 23 - 23) =     11.94372  eV     1   --> A              
     e( 24 - 24) =     12.06622  eV     1   --> E*             
     e( 25 - 25) =     12.13375  eV     1   --> E              
     e( 26 - 26) =     12.17953  eV     1   --> A              
     e( 27 - 27) =     12.45228  eV     1   --> E              
     e( 28 - 28) =     12.86779  eV     1   --> A              
     e( 29 - 29) =     13.06204  eV     1   --> E*             
     e( 30 - 30) =     13.38608  eV     1   --> E*             
     e( 31 - 31) =     13.83270  eV     1   --> E*             
     e( 32 - 32) =     13.90597  eV     1   --> A              
     e( 33 - 33) =     14.36485  eV     1   --> E              
     e( 34 - 34) =     14.66075  eV     1   --> A              
     e( 35 - 35) =     14.67330  eV     1   --> E*             
     e( 36 - 36) =     14.98724  eV     1   --> E              
     e( 37 - 37) =     16.55287  eV     1   --> E*             
     e( 38 - 38) =     16.91072  eV     1   --> A              
     e( 39 - 39) =     17.70974  eV     1   --> E              
     e( 40 - 40) =     17.72764  eV     1   --> A              

 **************************************************************************

 **************************************************************************

                    xk=(   0.33333,   0.57735,   0.01633  )

     Band symmetry, C_3 (3)     point group:

     e(  1 -  1) =    -59.95619  eV     1   --> E*             
     e(  2 -  2) =    -34.55671  eV     1   --> E              
     e(  3 -  3) =    -34.50099  eV     1   --> A              
     e(  4 -  4) =    -34.39208  eV     1   --> E*             
     e(  5 -  5) =    -11.52459  eV     1   --> E              
     e(  6 -  6) =    -11.49521  eV     1   --> E              
     e(  7 -  7) =     -5.35663  eV     1   --> A              
     e(  8 -  8) =     -4.42159  eV     1   --> E*             
     e(  9 -  9) =     -3.89114  eV     1   --> A              
     e( 10 - 10) =     -3.18706  eV     1   --> E              
     e( 11 - 11) =     -2.60614  eV     1   --> E*             
     e( 12 - 12) =     -1.82457  eV     1   --> E              
     e( 13 - 13) =      0.36747  eV     1   --> A              
     e( 14 - 14) =      2.27082  eV     1   --> E*             
     e( 15 - 15) =      3.40705  eV     1   --> A              
     e( 16 - 16) =      4.19035  eV     1   --> E              
     e( 17 - 17) =      5.65891  eV     1   --> E              
     e( 18 - 18) =      7.74780  eV     1   --> A              
     e( 19 - 19) =      7.96504  eV     1   --> E*             
     e( 20 - 20) =      9.88429  eV     1   --> E*             
     e( 21 - 21) =     11.01222  eV     1   --> E              
     e( 22 - 22) =     11.58139  eV     1   --> A              
     e( 23 - 23) =     11.93520  eV     1   --> A              
     e( 24 - 24) =     12.06268  eV     1   --> E*             
     e( 25 - 25) =     12.15369  eV     1   --> E              
     e( 26 - 26) =     12.17950  eV     1   --> A              
     e( 27 - 27) =     12.42567  eV     1   --> E              
     e( 28 - 28) =     12.87289  eV     1   --> A              
     e( 29 - 29) =     13.08485  eV     1   --> E*             
     e( 30 - 30) =     13.36644  eV     1   --> E*             
     e( 31 - 31) =     13.83235  eV     1   --> E*             
     e( 32 - 32) =     13.91695  eV     1   --> A              
     e( 33 - 33) =     14.41481  eV     1   --> E              
     e( 34 - 34) =     14.63920  eV     1   --> A              
     e( 35 - 35) =     14.66876  eV     1   --> E*             
     e( 36 - 36) =     14.93355  eV     1   --> E              
     e( 37 - 37) =     16.57206  eV     1   --> E*             
     e( 38 - 38) =     16.95930  eV     1   --> A              
     e( 39 - 39) =     17.67846  eV     1   --> A              
     e( 40 - 40) =     17.75010  eV     1   --> E              

 **************************************************************************

 **************************************************************************

                    xk=(   0.33333,   0.57735,   0.01306  )

     Band symmetry, C_3 (3)     point group:

     e(  1 -  1) =    -59.95619  eV     1   --> E*             
     e(  2 -  2) =    -34.55671  eV     1   --> E              
     e(  3 -  3) =    -34.50100  eV     1   --> A              
     e(  4 -  4) =    -34.39208  eV     1   --> E*             
     e(  5 -  5) =    -11.52459  eV     1   --> E              
     e(  6 -  6) =    -11.49521  eV     1   --> E              
     e(  7 -  7) =     -5.35663  eV     1   --> A              
     e(  8 -  8) =     -4.42159  eV     1   --> E*             
     e(  9 -  9) =     -3.89114  eV     1   --> A              
     e( 10 - 10) =     -3.18706  eV     1   --> E              
     e( 11 - 11) =     -2.60614  eV     1   --> E*             
     e( 12 - 12) =     -1.82457  eV     1   --> E              
     e( 13 - 13) =      0.36747  eV     1   --> A              
     e( 14 - 14) =      2.27082  eV     1   --> E*             
     e( 15 - 15) =      3.40705  eV     1   --> A              
     e( 16 - 16) =      4.19035  eV     1   --> E              
     e( 17 - 17) =      5.65891  eV     1   --> E              
     e( 18 - 18) =      7.74780  eV     1   --> A              
     e( 19 - 19) =      7.96503  eV     1   --> E*             
     e( 20 - 20) =      9.88439  eV     1   --> E*             
     e( 21 - 21) =     11.01160  eV     1   --> E              
     e( 22 - 22) =     11.58525  eV     1   --> A              
     e( 23 - 23) =     11.92801  eV     1   --> A              
     e( 24 - 24) =     12.05977  eV     1   --> E*             
     e( 25 - 25) =     12.17359  eV     1   --> E              
     e( 26 - 26) =     12.17950  eV     1   --> A              
     e( 27 - 27) =     12.40033  eV     1   --> E              
     e( 28 - 28) =     12.87709  eV     1   --> A              
     e( 29 - 29) =     13.10659  eV     1   --> E*             
     e( 30 - 30) =     13.34730  eV     1   --> E*             
     e( 31 - 31) =     13.83210  eV     1   --> E*             
     e( 32 - 32) =     13.92658  eV     1   --> A              
     e( 33 - 33) =     14.46513  eV     1   --> E              
     e( 34 - 34) =     14.62093  eV     1   --> A              
     e( 35 - 35) =     14.66503  eV     1   --> E*             
     e( 36 - 36) =     14.88018  eV     1   --> E              
     e( 37 - 37) =     16.58842  eV     1   --> E*             
     e( 38 - 38) =     17.00478  eV     1   --> A              
     e( 39 - 39) =     17.63252  eV     1   --> A              
     e( 40 - 40) =     17.78569  eV     1   --> E              

 **************************************************************************

 **************************************************************************

                    xk=(   0.33333,   0.57735,   0.00980  )

     Band symmetry, C_3 (3)     point group:

     e(  1 -  1) =    -59.95620  eV     1   --> E*             
     e(  2 -  2) =    -34.55671  eV     1   --> E              
     e(  3 -  3) =    -34.50100  eV     1   --> A              
     e(  4 -  4) =    -34.39208  eV     1   --> E*             
     e(  5 -  5) =    -11.52459  eV     1   --> E              
     e(  6 -  6) =    -11.49521  eV     1   --> E              
     e(  7 -  7) =     -5.35663  eV     1   --> A              
     e(  8 -  8) =     -4.42159  eV     1   --> E*             
     e(  9 -  9) =     -3.89114  eV     1   --> A              
     e( 10 - 10) =     -3.18706  eV     1   --> E              
     e( 11 - 11) =     -2.60614  eV     1   --> E*             
     e( 12 - 12) =     -1.82457  eV     1   --> E              
     e( 13 - 13) =      0.36747  eV     1   --> A              
     e( 14 - 14) =      2.27082  eV     1   --> E*             
     e( 15 - 15) =      3.40705  eV     1   --> A              
     e( 16 - 16) =      4.19035  eV     1   --> E              
     e( 17 - 17) =      5.65891  eV     1   --> E              
     e( 18 - 18) =      7.74780  eV     1   --> A              
     e( 19 - 19) =      7.96503  eV     1   --> E*             
     e( 20 - 20) =      9.88447  eV     1   --> E*             
     e( 21 - 21) =     11.01110  eV     1   --> E              
     e( 22 - 22) =     11.58839  eV     1   --> A              
     e( 23 - 23) =     11.92226  eV     1   --> A              
     e( 24 - 24) =     12.05749  eV     1   --> E*             
     e( 25 - 25) =     12.17950  eV     1   --> A              
     e( 26 - 26) =     12.19288  eV     1   --> E              
     e( 27 - 27) =     12.37680  eV     1   --> E              
     e( 28 - 28) =     12.88037  eV     1   --> A              
     e( 29 - 29) =     13.12654  eV     1   --> E*             
     e( 30 - 30) =     13.32937  eV     1   --> E*             
     e( 31 - 31) =     13.83190  eV     1   --> E*             
     e( 32 - 32) =     13.93452  eV     1   --> A              
     e( 33 - 33) =     14.51581  eV     1   --> E              
     e( 34 - 34) =     14.60626  eV     1   --> A              
     e( 35 - 35) =     14.66211  eV     1   --> E*             
     e( 36 - 36) =     14.82712  eV     1   --> E              
     e( 37 - 37) =     16.60157  eV     1   --> E*             
     e( 38 - 38) =     17.04546  eV     1   --> A              
     e( 39 - 39) =     17.59146  eV     1   --> A              
     e( 40 - 40) =     17.81538  eV     1   -->   ?

 **************************************************************************

 **************************************************************************

                    xk=(   0.33333,   0.57735,   0.00653  )

     Band symmetry, C_3 (3)     point group:

     e(  1 -  1) =    -59.95639  eV     1   --> E*             
     e(  2 -  2) =    -34.55674  eV     1   --> E              
     e(  3 -  3) =    -34.50103  eV     1   --> A              
     e(  4 -  4) =    -34.39214  eV     1   --> E*             
     e(  5 -  5) =    -11.52459  eV     1   --> E              
     e(  6 -  6) =    -11.49521  eV     1   --> E              
     e(  7 -  7) =     -5.35663  eV     1   --> A              
     e(  8 -  8) =     -4.42162  eV     1   --> E*             
     e(  9 -  9) =     -3.89114  eV     1   --> A              
     e( 10 - 10) =     -3.18706  eV     1   --> E              
     e( 11 - 11) =     -2.60614  eV     1   --> E*             
     e( 12 - 12) =     -1.82459  eV     1   --> E              
     e( 13 - 13) =      0.36746  eV     1   --> A              
     e( 14 - 14) =      2.27081  eV     1   --> E*             
     e( 15 - 15) =      3.40703  eV     1   --> A              
     e( 16 - 16) =      4.19035  eV     1   --> E              
     e( 17 - 17) =      5.65891  eV     1   --> E              
     e( 18 - 18) =      7.74780  eV     1   --> A              
     e( 19 - 19) =      7.96501  eV     1   --> E*             
     e( 20 - 20) =      9.88450  eV     1   --> E*             
     e( 21 - 21) =     11.01074  eV     1   --> E              
     e( 22 - 22) =     11.59072  eV     1   --> A              
     e( 23 - 23) =     11.91806  eV     1   --> A              
     e( 24 - 24) =     12.05586  eV     1   --> E*             
     e( 25 - 25) =     12.17950  eV     1   --> A              
     e( 26 - 26) =     12.21045  eV     1   --> E              
     e( 27 - 27) =     12.35620  eV     1   --> E              
     e( 28 - 28) =     12.88272  eV     1   --> A              
     e( 29 - 29) =     13.14348  eV     1   --> E*             
     e( 30 - 30) =     13.31385  eV     1   --> E*             
     e( 31 - 31) =     13.83172  eV     1   --> E*             
     e( 32 - 32) =     13.94047  eV     1   --> A              
     e( 33 - 33) =     14.56683  eV     1   --> E              
     e( 34 - 34) =     14.59551  eV     1   --> A              
     e( 35 - 35) =     14.66002  eV     1   --> E*             
     e( 36 - 36) =     14.77440  eV     1   --> E              
     e( 37 - 37) =     16.61117  eV     1   --> E*             
     e( 38 - 38) =     17.07879  eV     1   --> A              
     e( 39 - 39) =     17.55783  eV     1   --> A              
     e( 40 - 40) =     17.83786  eV     1   --> E              

 **************************************************************************

 **************************************************************************

                    xk=(   0.33333,   0.57735,   0.00327  )

     Band symmetry, C_3 (3)     point group:

     e(  1 -  1) =    -59.95639  eV     1   --> E*             
     e(  2 -  2) =    -34.55674  eV     1   --> E              
     e(  3 -  3) =    -34.50103  eV     1   --> A              
     e(  4 -  4) =    -34.39214  eV     1   --> E*             
     e(  5 -  5) =    -11.52459  eV     1   --> E              
     e(  6 -  6) =    -11.49521  eV     1   --> E              
     e(  7 -  7) =     -5.35663  eV     1   --> A              
     e(  8 -  8) =     -4.42162  eV     1   --> E*             
     e(  9 -  9) =     -3.89114  eV     1   --> A              
     e( 10 - 10) =     -3.18706  eV     1   --> E              
     e( 11 - 11) =     -2.60614  eV     1   --> E*             
     e( 12 - 12) =     -1.82459  eV     1   --> E              
     e( 13 - 13) =      0.36746  eV     1   --> A              
     e( 14 - 14) =      2.27081  eV     1   --> E*             
     e( 15 - 15) =      3.40703  eV     1   --> A              
     e( 16 - 16) =      4.19035  eV     1   --> E              
     e( 17 - 17) =      5.65891  eV     1   --> E              
     e( 18 - 18) =      7.74780  eV     1   --> A              
     e( 19 - 19) =      7.96501  eV     1   --> E*             
     e( 20 - 20) =      9.88454  eV     1   --> E*             
     e( 21 - 21) =     11.01052  eV     1   --> E              
     e( 22 - 22) =     11.59215  eV     1   --> A              
     e( 23 - 23) =     11.91551  eV     1   --> A              
     e( 24 - 24) =     12.05488  eV     1   --> E*             
     e( 25 - 25) =     12.17949  eV     1   --> A              
     e( 26 - 26) =     12.22393  eV     1   --> E              
     e( 27 - 27) =     12.34091  eV     1   --> E              
     e( 28 - 28) =     12.88413  eV     1   --> A              
     e( 29 - 29) =     13.15541  eV     1   --> E*             
     e( 30 - 30) =     13.30278  eV     1   --> E*             
     e( 31 - 31) =     13.83164  eV     1   --> E*             
     e( 32 - 32) =     13.94415  eV     1   --> A              
     e( 33 - 33) =     14.58894  eV     1   --> A              
     e( 34 - 34) =     14.61821  eV     1   --> E              
     e( 35 - 35) =     14.65877  eV     1   --> E*             
     e( 36 - 36) =     14.72200  eV     1   --> E              
     e( 37 - 37) =     16.61706  eV     1   --> E*             
     e( 38 - 38) =     17.10128  eV     1   --> A              
     e( 39 - 39) =     17.53516  eV     1   --> A              
     e( 40 - 40) =     17.85196  eV     1   --> E              

 **************************************************************************

 **************************************************************************

                    xk=(   0.33333,   0.57735,   0.00000  )

     point group C_3h (-6)  
     there are  6 classes
     the character table:

       E     C3    C3^2  s_h   S3    S3^5 
A'     1.00  1.00  1.00  1.00  1.00  1.00
E'     1.00 -0.50 -0.50  1.00 -0.50 -0.50
E'*    1.00 -0.50 -0.50  1.00 -0.50 -0.50
A''    1.00  1.00  1.00 -1.00 -1.00 -1.00
E''    1.00 -0.50 -0.50 -1.00  0.50  0.50
E''*   1.00 -0.50 -0.50 -1.00  0.50  0.50
     imaginary part
A'     0.00  0.00  0.00  0.00  0.00  0.00
E'     0.00  0.87 -0.87  0.00  0.87 -0.87
E'*    0.00 -0.87  0.87  0.00 -0.87  0.87
A''    0.00  0.00  0.00  0.00  0.00  0.00
E''    0.00  0.87 -0.87  0.00 -0.87  0.87
E''*   0.00 -0.87  0.87  0.00  0.87 -0.87

     the symmetry operations in each class and the name of the first element:

     E        1
                                                                 
     C3       2
                                                                 
     C3^2     3
                                                                 
     s_h      4
                                                                 
     S3       6
                                                                 
     S3^5     5
                                                                 

     Band symmetry, C_3h (-6)   point group:

     e(  1 -  1) =    -59.95639  eV     1   --> E'*            
     e(  2 -  2) =    -34.55674  eV     1   --> E'             
     e(  3 -  3) =    -34.50103  eV     1   --> A'             
     e(  4 -  4) =    -34.39214  eV     1   --> E''*           
     e(  5 -  5) =    -11.52459  eV     1   --> E''            
     e(  6 -  6) =    -11.49521  eV     1   --> E'             
     e(  7 -  7) =     -5.35663  eV     1   --> A''            
     e(  8 -  8) =     -4.42162  eV     1   --> E'*            
     e(  9 -  9) =     -3.89114  eV     1   --> A'             
     e( 10 - 10) =     -3.18706  eV     1   --> E'             
     e( 11 - 11) =     -2.60614  eV     1   --> E''*           
     e( 12 - 12) =     -1.82459  eV     1   --> E''            
     e( 13 - 13) =      0.36746  eV     1   --> A'             
     e( 14 - 14) =      2.27081  eV     1   --> E'*            
     e( 15 - 15) =      3.40703  eV     1   --> A''            
     e( 16 - 16) =      4.19035  eV     1   --> E'             
     e( 17 - 17) =      5.65891  eV     1   --> E''            
     e( 18 - 18) =      7.74780  eV     1   --> A'             
     e( 19 - 19) =      7.96501  eV     1   --> E'*            
     e( 20 - 20) =      9.88455  eV     1   --> E''*           
     e( 21 - 21) =     11.01045  eV     1   --> E'             
     e( 22 - 22) =     11.59264  eV     1   --> A''            
     e( 23 - 23) =     11.91465  eV     1   --> A'             
     e( 24 - 24) =     12.05455  eV     1   --> E'*            
     e( 25 - 25) =     12.17949  eV     1   --> A''            
     e( 26 - 26) =     12.22929  eV     1   --> E''            
     e( 27 - 27) =     12.33495  eV     1   --> E'             
     e( 28 - 28) =     12.88460  eV     1   --> A'             
     e( 29 - 29) =     13.15982  eV     1   --> E''*           
     e( 30 - 30) =     13.29865  eV     1   --> E'*            
     e( 31 - 31) =     13.83161  eV     1   --> E''*           
     e( 32 - 32) =     13.94539  eV     1   --> A''            
     e( 33 - 33) =     14.58673  eV     1   --> A'             
     e( 34 - 34) =     14.65835  eV     1   --> E'*            
     e( 35 - 35) =     14.66962  eV     1   --> E''            
     e( 36 - 36) =     14.67025  eV     1   --> E'             
     e( 37 - 37) =     16.61904  eV     1   --> E''*           
     e( 38 - 38) =     17.10932  eV     1   --> A'             
     e( 39 - 39) =     17.52705  eV     1   --> A''            
     e( 40 - 40) =     17.85677  eV     1   --> E''            

 **************************************************************************

     BANDS        :   1m16.68s CPU   1m24.94s WALL


   This run was terminated on:  17:50:27   4Jan2022            

=------------------------------------------------------------------------------=
   JOB DONE.
=------------------------------------------------------------------------------=
