
     Program PWSCF v.6.7MaX starts on  4Jan2022 at 17:48:22 

     This program is part of the open-source Quantum ESPRESSO suite
     for quantum simulation of materials; please cite
         "P. Giannozzi et al., J. Phys.:Condens. Matter 21 395502 (2009);
         "P. Giannozzi et al., J. Phys.:Condens. Matter 29 465901 (2017);
          URL http://www.quantum-espresso.org", 
     in publications or presentations arising from this work. More details at
     http://www.quantum-espresso.org/quote

     Parallel version (MPI), running on    84 processors

     MPI processes distributed on     3 nodes
     K-points division:     npool     =       7
     R & G space division:  proc/nbgrp/npool/nimage =      12
     Waiting for input...
     Reading input from standard input

     Current dimensions of program PWSCF are:
     Max number of different atomic species (ntypx) = 10
     Max number of k-points (npk) =  40000
     Max angular momentum in pseudopotentials (lmaxx) =  3

     Atomic positions and unit cell read from directory:
     run_output/MoS2_2D.save/
     Atomic positions from file used, from input discarded


     Subspace diagonalization in iterative solution of the eigenvalue problem:
     one sub-group per band group will be used
     scalapack distributed-memory algorithm (size of sub-group:  3*  3 procs)


     Parallelization info
     --------------------
     sticks:   dense  smooth     PW     G-vecs:    dense   smooth      PW
     Min          48      48     13                 4716     4716     749
     Max          50      50     14                 4724     4724     772
     Sum         583     583    163                56613    56613    9123



     bravais-lattice index     =            4
     lattice parameter (alat)  =       5.8772  a.u.
     unit-cell volume          =     897.4163 (a.u.)^3
     number of atoms/cell      =            3
     number of atomic types    =            2
     number of electrons       =        26.00
     number of Kohn-Sham states=           40
     kinetic-energy cutoff     =      60.0000  Ry
     charge density cutoff     =     240.0000  Ry
     Exchange-correlation= SLA-PZ-NOGX-NOGC
                           (   1   1   0   0   0   0   0)

     celldm(1)=   5.877208  celldm(2)=   0.000000  celldm(3)=   5.104465
     celldm(4)=   0.000000  celldm(5)=   0.000000  celldm(6)=   0.000000

     crystal axes: (cart. coord. in units of alat)
               a(1) = (   1.000000   0.000000   0.000000 )  
               a(2) = (  -0.500000   0.866025   0.000000 )  
               a(3) = (   0.000000   0.000000   5.104465 )  

     reciprocal axes: (cart. coord. in units 2 pi/alat)
               b(1) = (  1.000000  0.577350 -0.000000 )  
               b(2) = (  0.000000  1.154701  0.000000 )  
               b(3) = (  0.000000 -0.000000  0.195907 )  


     PseudoPot. # 1 for Mo read from file:
     PPs/Mo_SR_withPS_PZ.UPF
     MD5 check sum: 19bf02b7f08077cf8574869525df176e
     Pseudo is Norm-conserving + core correction, Zval = 14.0
     Generated using "atomic" code by A. Dal Corso  (Quantum ESPRESSO distribution)
     Using radial grid of 1229 points,  5 beta functions with: 
                l(1) =   0
                l(2) =   0
                l(3) =   1
                l(4) =   2
                l(5) =   2

     PseudoPot. # 2 for S  read from file:
     PPs/S.pz-hgh.UPF
     MD5 check sum: fb24c143a2a3ea3aba309d3cb9e9e6ec
     Pseudo is Norm-conserving, Zval =  6.0
     Generated in analytical, separable form
     Using radial grid of 1151 points,  3 beta functions with: 
                l(1) =   0
                l(2) =   0
                l(3) =   1

     atomic species   valence    mass     pseudopotential
        Mo            14.00    95.94000     Mo( 1.00)
        S              6.00    32.06500     S ( 1.00)

     12 Sym. Ops. (no inversion) found


                                    s                        frac. trans.

      isym =  1     identity                                     

 cryst.   s( 1) = (     1          0          0      )
                  (     0          1          0      )
                  (     0          0          1      )

 cart.    s( 1) = (  1.0000000  0.0000000  0.0000000 )
                  (  0.0000000  1.0000000  0.0000000 )
                  (  0.0000000  0.0000000  1.0000000 )


      isym =  2     180 deg rotation - cart. axis [0,1,0]        

 cryst.   s( 2) = (    -1          0          0      )
                  (     1          1          0      )
                  (     0          0         -1      )

 cart.    s( 2) = ( -1.0000000  0.0000000  0.0000000 )
                  (  0.0000000  1.0000000  0.0000000 )
                  (  0.0000000  0.0000000 -1.0000000 )


      isym =  3     120 deg rotation - cryst. axis [0,0,1]       

 cryst.   s( 3) = (     0          1          0      )
                  (    -1         -1          0      )
                  (     0          0          1      )

 cart.    s( 3) = ( -0.5000000 -0.8660254  0.0000000 )
                  (  0.8660254 -0.5000000  0.0000000 )
                  (  0.0000000  0.0000000  1.0000000 )


      isym =  4     120 deg rotation - cryst. axis [0,0,-1]      

 cryst.   s( 4) = (    -1         -1          0      )
                  (     1          0          0      )
                  (     0          0          1      )

 cart.    s( 4) = ( -0.5000000  0.8660254  0.0000000 )
                  ( -0.8660254 -0.5000000  0.0000000 )
                  (  0.0000000  0.0000000  1.0000000 )


      isym =  5     180 deg rotation - cryst. axis [1,-1,0]      

 cryst.   s( 5) = (     0         -1          0      )
                  (    -1          0          0      )
                  (     0          0         -1      )

 cart.    s( 5) = (  0.5000000 -0.8660254  0.0000000 )
                  ( -0.8660254 -0.5000000  0.0000000 )
                  (  0.0000000  0.0000000 -1.0000000 )


      isym =  6     180 deg rotation - cryst. axis [2,1,0]       

 cryst.   s( 6) = (     1          1          0      )
                  (     0         -1          0      )
                  (     0          0         -1      )

 cart.    s( 6) = (  0.5000000  0.8660254  0.0000000 )
                  (  0.8660254 -0.5000000  0.0000000 )
                  (  0.0000000  0.0000000 -1.0000000 )


      isym =  7     inv. 180 deg rotation - cart. axis [0,0,1]   

 cryst.   s( 7) = (     1          0          0      )
                  (     0          1          0      )
                  (     0          0         -1      )

 cart.    s( 7) = (  1.0000000  0.0000000  0.0000000 )
                  (  0.0000000  1.0000000  0.0000000 )
                  (  0.0000000  0.0000000 -1.0000000 )


      isym =  8     inv. 180 deg rotation - cart. axis [1,0,0]   

 cryst.   s( 8) = (    -1          0          0      )
                  (     1          1          0      )
                  (     0          0          1      )

 cart.    s( 8) = ( -1.0000000  0.0000000  0.0000000 )
                  (  0.0000000  1.0000000  0.0000000 )
                  (  0.0000000  0.0000000  1.0000000 )


      isym =  9     inv.  60 deg rotation - cryst. axis [0,0,1]  

 cryst.   s( 9) = (    -1         -1          0      )
                  (     1          0          0      )
                  (     0          0         -1      )

 cart.    s( 9) = ( -0.5000000  0.8660254  0.0000000 )
                  ( -0.8660254 -0.5000000  0.0000000 )
                  (  0.0000000  0.0000000 -1.0000000 )


      isym = 10     inv.  60 deg rotation - cryst. axis [0,0,-1] 

 cryst.   s(10) = (     0          1          0      )
                  (    -1         -1          0      )
                  (     0          0         -1      )

 cart.    s(10) = ( -0.5000000 -0.8660254  0.0000000 )
                  (  0.8660254 -0.5000000  0.0000000 )
                  (  0.0000000  0.0000000 -1.0000000 )


      isym = 11     inv. 180 deg rotation - cryst. axis [0,1,0]  

 cryst.   s(11) = (     1          1          0      )
                  (     0         -1          0      )
                  (     0          0          1      )

 cart.    s(11) = (  0.5000000  0.8660254  0.0000000 )
                  (  0.8660254 -0.5000000  0.0000000 )
                  (  0.0000000  0.0000000  1.0000000 )


      isym = 12     inv. 180 deg rotation - cryst. axis [1,1,0]  

 cryst.   s(12) = (     0         -1          0      )
                  (    -1          0          0      )
                  (     0          0          1      )

 cart.    s(12) = (  0.5000000 -0.8660254  0.0000000 )
                  ( -0.8660254 -0.5000000  0.0000000 )
                  (  0.0000000  0.0000000  1.0000000 )


     point group D_3h (-62m)
     there are  6 classes
     the character table:

       E     2C3   3C2   s_h   2S3   3s_v 
A'_1   1.00  1.00  1.00  1.00  1.00  1.00
A'_2   1.00  1.00 -1.00  1.00  1.00 -1.00
E'     2.00 -1.00  0.00  2.00 -1.00  0.00
A''1   1.00  1.00  1.00 -1.00 -1.00 -1.00
A''2   1.00  1.00 -1.00 -1.00 -1.00  1.00
E''    2.00 -1.00  0.00 -2.00  1.00  0.00

     the symmetry operations in each class and the name of the first element:

     E        1
          identity                                               
     2C3      3    4
          120 deg rotation - cryst. axis [0,0,1]                 
     3C2      2    6    5
          180 deg rotation - cart. axis [0,1,0]                  
     s_h      7
          inv. 180 deg rotation - cart. axis [0,0,1]             
     2S3      9   10
          inv.  60 deg rotation - cryst. axis [0,0,1]            
     3s_v     8   11   12
          inv. 180 deg rotation - cart. axis [1,0,0]             

   Cartesian axes

     site n.     atom                  positions (alat units)
         1           Mo  tau(   1) = (  -0.0000000   0.5773503   0.0000000  )
         2           S   tau(   2) = (   0.5000000   0.2886751   0.4991315  )
         3           S   tau(   3) = (   0.5000000   0.2886751  -0.4991315  )

   Crystallographic axes

     site n.     atom                  positions (cryst. coord.)
         1           Mo  tau(   1) = (  0.3333333  0.6666667  0.0000000  )
         2           S   tau(   2) = (  0.6666667  0.3333333  0.0977833  )
         3           S   tau(   3) = (  0.6666667  0.3333333 -0.0977833  )

     number of k points=   244  Gaussian smearing, width (Ry)=  0.0017
                       cart. coord. in units 2pi/alat
        k(    1) = (   0.0000000   0.0000000   0.0000000), wk =   0.0081967
        k(    2) = (   0.0166667   0.0096225   0.0000000), wk =   0.0081967
        k(    3) = (   0.0333333   0.0192450   0.0000000), wk =   0.0081967
        k(    4) = (   0.0500000   0.0288675   0.0000000), wk =   0.0081967
        k(    5) = (   0.0666667   0.0384900   0.0000000), wk =   0.0081967
        k(    6) = (   0.0833333   0.0481125   0.0000000), wk =   0.0081967
        k(    7) = (   0.1000000   0.0577350   0.0000000), wk =   0.0081967
        k(    8) = (   0.1166667   0.0673575   0.0000000), wk =   0.0081967
        k(    9) = (   0.1333333   0.0769800   0.0000000), wk =   0.0081967
        k(   10) = (   0.1500000   0.0866025   0.0000000), wk =   0.0081967
        k(   11) = (   0.1666667   0.0962250   0.0000000), wk =   0.0081967
        k(   12) = (   0.1833333   0.1058475   0.0000000), wk =   0.0081967
        k(   13) = (   0.2000000   0.1154701   0.0000000), wk =   0.0081967
        k(   14) = (   0.2166667   0.1250926   0.0000000), wk =   0.0081967
        k(   15) = (   0.2333333   0.1347151   0.0000000), wk =   0.0081967
        k(   16) = (   0.2500000   0.1443376   0.0000000), wk =   0.0081967
        k(   17) = (   0.2666667   0.1539601   0.0000000), wk =   0.0081967
        k(   18) = (   0.2833333   0.1635826   0.0000000), wk =   0.0081967
        k(   19) = (   0.3000000   0.1732051   0.0000000), wk =   0.0081967
        k(   20) = (   0.3166667   0.1828276   0.0000000), wk =   0.0081967
        k(   21) = (   0.3333333   0.1924501   0.0000000), wk =   0.0081967
        k(   22) = (   0.3500000   0.2020726   0.0000000), wk =   0.0081967
        k(   23) = (   0.3666667   0.2116951   0.0000000), wk =   0.0081967
        k(   24) = (   0.3833333   0.2213176   0.0000000), wk =   0.0081967
        k(   25) = (   0.4000000   0.2309401   0.0000000), wk =   0.0081967
        k(   26) = (   0.4166667   0.2405626   0.0000000), wk =   0.0081967
        k(   27) = (   0.4333333   0.2501851   0.0000000), wk =   0.0081967
        k(   28) = (   0.4500000   0.2598076   0.0000000), wk =   0.0081967
        k(   29) = (   0.4666667   0.2694301   0.0000000), wk =   0.0081967
        k(   30) = (   0.4833333   0.2790526   0.0000000), wk =   0.0081967
        k(   31) = (   0.5000000   0.2886751   0.0000000), wk =   0.0081967
        k(   32) = (   0.4944444   0.2982976   0.0000000), wk =   0.0081967
        k(   33) = (   0.4888889   0.3079201   0.0000000), wk =   0.0081967
        k(   34) = (   0.4833333   0.3175426   0.0000000), wk =   0.0081967
        k(   35) = (   0.4777778   0.3271652   0.0000000), wk =   0.0081967
        k(   36) = (   0.4722222   0.3367877   0.0000000), wk =   0.0081967
        k(   37) = (   0.4666667   0.3464102   0.0000000), wk =   0.0081967
        k(   38) = (   0.4611111   0.3560327   0.0000000), wk =   0.0081967
        k(   39) = (   0.4555556   0.3656552   0.0000000), wk =   0.0081967
        k(   40) = (   0.4500000   0.3752777   0.0000000), wk =   0.0081967
        k(   41) = (   0.4444444   0.3849002   0.0000000), wk =   0.0081967
        k(   42) = (   0.4388889   0.3945227   0.0000000), wk =   0.0081967
        k(   43) = (   0.4333333   0.4041452   0.0000000), wk =   0.0081967
        k(   44) = (   0.4277778   0.4137677   0.0000000), wk =   0.0081967
        k(   45) = (   0.4222222   0.4233902   0.0000000), wk =   0.0081967
        k(   46) = (   0.4166667   0.4330127   0.0000000), wk =   0.0081967
        k(   47) = (   0.4111111   0.4426352   0.0000000), wk =   0.0081967
        k(   48) = (   0.4055556   0.4522577   0.0000000), wk =   0.0081967
        k(   49) = (   0.4000000   0.4618802   0.0000000), wk =   0.0081967
        k(   50) = (   0.3944444   0.4715027   0.0000000), wk =   0.0081967
        k(   51) = (   0.3888889   0.4811252   0.0000000), wk =   0.0081967
        k(   52) = (   0.3833333   0.4907477   0.0000000), wk =   0.0081967
        k(   53) = (   0.3777778   0.5003702   0.0000000), wk =   0.0081967
        k(   54) = (   0.3722222   0.5099927   0.0000000), wk =   0.0081967
        k(   55) = (   0.3666667   0.5196152   0.0000000), wk =   0.0081967
        k(   56) = (   0.3611111   0.5292377   0.0000000), wk =   0.0081967
        k(   57) = (   0.3555556   0.5388603   0.0000000), wk =   0.0081967
        k(   58) = (   0.3500000   0.5484828   0.0000000), wk =   0.0081967
        k(   59) = (   0.3444444   0.5581053   0.0000000), wk =   0.0081967
        k(   60) = (   0.3388889   0.5677278   0.0000000), wk =   0.0081967
        k(   61) = (   0.3333333   0.5773503   0.0000000), wk =   0.0081967
        k(   62) = (   0.3222222   0.5581053   0.0000000), wk =   0.0081967
        k(   63) = (   0.3111111   0.5388603   0.0000000), wk =   0.0081967
        k(   64) = (   0.3000000   0.5196152   0.0000000), wk =   0.0081967
        k(   65) = (   0.2888889   0.5003702   0.0000000), wk =   0.0081967
        k(   66) = (   0.2777778   0.4811252   0.0000000), wk =   0.0081967
        k(   67) = (   0.2666667   0.4618802   0.0000000), wk =   0.0081967
        k(   68) = (   0.2555556   0.4426352   0.0000000), wk =   0.0081967
        k(   69) = (   0.2444444   0.4233902   0.0000000), wk =   0.0081967
        k(   70) = (   0.2333333   0.4041452   0.0000000), wk =   0.0081967
        k(   71) = (   0.2222222   0.3849002   0.0000000), wk =   0.0081967
        k(   72) = (   0.2111111   0.3656552   0.0000000), wk =   0.0081967
        k(   73) = (   0.2000000   0.3464102   0.0000000), wk =   0.0081967
        k(   74) = (   0.1888889   0.3271652   0.0000000), wk =   0.0081967
        k(   75) = (   0.1777778   0.3079201   0.0000000), wk =   0.0081967
        k(   76) = (   0.1666667   0.2886751   0.0000000), wk =   0.0081967
        k(   77) = (   0.1555556   0.2694301   0.0000000), wk =   0.0081967
        k(   78) = (   0.1444444   0.2501851   0.0000000), wk =   0.0081967
        k(   79) = (   0.1333333   0.2309401   0.0000000), wk =   0.0081967
        k(   80) = (   0.1222222   0.2116951   0.0000000), wk =   0.0081967
        k(   81) = (   0.1111111   0.1924501   0.0000000), wk =   0.0081967
        k(   82) = (   0.1000000   0.1732051   0.0000000), wk =   0.0081967
        k(   83) = (   0.0888889   0.1539601   0.0000000), wk =   0.0081967
        k(   84) = (   0.0777778   0.1347151   0.0000000), wk =   0.0081967
        k(   85) = (   0.0666667   0.1154701   0.0000000), wk =   0.0081967
        k(   86) = (   0.0555556   0.0962250   0.0000000), wk =   0.0081967
        k(   87) = (   0.0444444   0.0769800   0.0000000), wk =   0.0081967
        k(   88) = (   0.0333333   0.0577350   0.0000000), wk =   0.0081967
        k(   89) = (   0.0222222   0.0384900   0.0000000), wk =   0.0081967
        k(   90) = (   0.0111111   0.0192450   0.0000000), wk =   0.0081967
        k(   91) = (   0.0000000   0.0000000   0.0000000), wk =   0.0081967
        k(   92) = (   0.0000000   0.0000000   0.0979535), wk =   0.0081967
        k(   93) = (   0.0166667   0.0096225   0.0979535), wk =   0.0081967
        k(   94) = (   0.0333333   0.0192450   0.0979535), wk =   0.0081967
        k(   95) = (   0.0500000   0.0288675   0.0979535), wk =   0.0081967
        k(   96) = (   0.0666667   0.0384900   0.0979535), wk =   0.0081967
        k(   97) = (   0.0833333   0.0481125   0.0979535), wk =   0.0081967
        k(   98) = (   0.1000000   0.0577350   0.0979535), wk =   0.0081967
        k(   99) = (   0.1166667   0.0673575   0.0979535), wk =   0.0081967
        k(  100) = (   0.1333333   0.0769800   0.0979535), wk =   0.0081967
        k(  101) = (   0.1500000   0.0866025   0.0979535), wk =   0.0081967
        k(  102) = (   0.1666667   0.0962250   0.0979535), wk =   0.0081967
        k(  103) = (   0.1833333   0.1058475   0.0979535), wk =   0.0081967
        k(  104) = (   0.2000000   0.1154701   0.0979535), wk =   0.0081967
        k(  105) = (   0.2166667   0.1250926   0.0979535), wk =   0.0081967
        k(  106) = (   0.2333333   0.1347151   0.0979535), wk =   0.0081967
        k(  107) = (   0.2500000   0.1443376   0.0979535), wk =   0.0081967
        k(  108) = (   0.2666667   0.1539601   0.0979535), wk =   0.0081967
        k(  109) = (   0.2833333   0.1635826   0.0979535), wk =   0.0081967
        k(  110) = (   0.3000000   0.1732051   0.0979535), wk =   0.0081967
        k(  111) = (   0.3166667   0.1828276   0.0979535), wk =   0.0081967
        k(  112) = (   0.3333333   0.1924501   0.0979535), wk =   0.0081967
        k(  113) = (   0.3500000   0.2020726   0.0979535), wk =   0.0081967
        k(  114) = (   0.3666667   0.2116951   0.0979535), wk =   0.0081967
        k(  115) = (   0.3833333   0.2213176   0.0979535), wk =   0.0081967
        k(  116) = (   0.4000000   0.2309401   0.0979535), wk =   0.0081967
        k(  117) = (   0.4166667   0.2405626   0.0979535), wk =   0.0081967
        k(  118) = (   0.4333333   0.2501851   0.0979535), wk =   0.0081967
        k(  119) = (   0.4500000   0.2598076   0.0979535), wk =   0.0081967
        k(  120) = (   0.4666667   0.2694301   0.0979535), wk =   0.0081967
        k(  121) = (   0.4833333   0.2790526   0.0979535), wk =   0.0081967
        k(  122) = (   0.5000000   0.2886751   0.0979535), wk =   0.0081967
        k(  123) = (   0.4944444   0.2982976   0.0979535), wk =   0.0081967
        k(  124) = (   0.4888889   0.3079201   0.0979535), wk =   0.0081967
        k(  125) = (   0.4833333   0.3175426   0.0979535), wk =   0.0081967
        k(  126) = (   0.4777778   0.3271652   0.0979535), wk =   0.0081967
        k(  127) = (   0.4722222   0.3367877   0.0979535), wk =   0.0081967
        k(  128) = (   0.4666667   0.3464102   0.0979535), wk =   0.0081967
        k(  129) = (   0.4611111   0.3560327   0.0979535), wk =   0.0081967
        k(  130) = (   0.4555556   0.3656552   0.0979535), wk =   0.0081967
        k(  131) = (   0.4500000   0.3752777   0.0979535), wk =   0.0081967
        k(  132) = (   0.4444444   0.3849002   0.0979535), wk =   0.0081967
        k(  133) = (   0.4388889   0.3945227   0.0979535), wk =   0.0081967
        k(  134) = (   0.4333333   0.4041452   0.0979535), wk =   0.0081967
        k(  135) = (   0.4277778   0.4137677   0.0979535), wk =   0.0081967
        k(  136) = (   0.4222222   0.4233902   0.0979535), wk =   0.0081967
        k(  137) = (   0.4166667   0.4330127   0.0979535), wk =   0.0081967
        k(  138) = (   0.4111111   0.4426352   0.0979535), wk =   0.0081967
        k(  139) = (   0.4055556   0.4522577   0.0979535), wk =   0.0081967
        k(  140) = (   0.4000000   0.4618802   0.0979535), wk =   0.0081967
        k(  141) = (   0.3944444   0.4715027   0.0979535), wk =   0.0081967
        k(  142) = (   0.3888889   0.4811252   0.0979535), wk =   0.0081967
        k(  143) = (   0.3833333   0.4907477   0.0979535), wk =   0.0081967
        k(  144) = (   0.3777778   0.5003702   0.0979535), wk =   0.0081967
        k(  145) = (   0.3722222   0.5099927   0.0979535), wk =   0.0081967
        k(  146) = (   0.3666667   0.5196152   0.0979535), wk =   0.0081967
        k(  147) = (   0.3611111   0.5292377   0.0979535), wk =   0.0081967
        k(  148) = (   0.3555556   0.5388603   0.0979535), wk =   0.0081967
        k(  149) = (   0.3500000   0.5484828   0.0979535), wk =   0.0081967
        k(  150) = (   0.3444444   0.5581053   0.0979535), wk =   0.0081967
        k(  151) = (   0.3388889   0.5677278   0.0979535), wk =   0.0081967
        k(  152) = (   0.3333333   0.5773503   0.0979535), wk =   0.0081967
        k(  153) = (   0.3222222   0.5581053   0.0979535), wk =   0.0081967
        k(  154) = (   0.3111111   0.5388603   0.0979535), wk =   0.0081967
        k(  155) = (   0.3000000   0.5196152   0.0979535), wk =   0.0081967
        k(  156) = (   0.2888889   0.5003702   0.0979535), wk =   0.0081967
        k(  157) = (   0.2777778   0.4811252   0.0979535), wk =   0.0081967
        k(  158) = (   0.2666667   0.4618802   0.0979535), wk =   0.0081967
        k(  159) = (   0.2555556   0.4426352   0.0979535), wk =   0.0081967
        k(  160) = (   0.2444444   0.4233902   0.0979535), wk =   0.0081967
        k(  161) = (   0.2333333   0.4041452   0.0979535), wk =   0.0081967
        k(  162) = (   0.2222222   0.3849002   0.0979535), wk =   0.0081967
        k(  163) = (   0.2111111   0.3656552   0.0979535), wk =   0.0081967
        k(  164) = (   0.2000000   0.3464102   0.0979535), wk =   0.0081967
        k(  165) = (   0.1888889   0.3271652   0.0979535), wk =   0.0081967
        k(  166) = (   0.1777778   0.3079201   0.0979535), wk =   0.0081967
        k(  167) = (   0.1666667   0.2886751   0.0979535), wk =   0.0081967
        k(  168) = (   0.1555556   0.2694301   0.0979535), wk =   0.0081967
        k(  169) = (   0.1444444   0.2501851   0.0979535), wk =   0.0081967
        k(  170) = (   0.1333333   0.2309401   0.0979535), wk =   0.0081967
        k(  171) = (   0.1222222   0.2116951   0.0979535), wk =   0.0081967
        k(  172) = (   0.1111111   0.1924501   0.0979535), wk =   0.0081967
        k(  173) = (   0.1000000   0.1732051   0.0979535), wk =   0.0081967
        k(  174) = (   0.0888889   0.1539601   0.0979535), wk =   0.0081967
        k(  175) = (   0.0777778   0.1347151   0.0979535), wk =   0.0081967
        k(  176) = (   0.0666667   0.1154701   0.0979535), wk =   0.0081967
        k(  177) = (   0.0555556   0.0962250   0.0979535), wk =   0.0081967
        k(  178) = (   0.0444444   0.0769800   0.0979535), wk =   0.0081967
        k(  179) = (   0.0333333   0.0577350   0.0979535), wk =   0.0081967
        k(  180) = (   0.0222222   0.0384900   0.0979535), wk =   0.0081967
        k(  181) = (   0.0111111   0.0192450   0.0979535), wk =   0.0081967
        k(  182) = (   0.0000000   0.0000000   0.0979535), wk =   0.0081967
        k(  183) = (   0.5000000   0.2886751   0.0979535), wk =   0.0081967
        k(  184) = (   0.5000000   0.2886751   0.0946883), wk =   0.0081967
        k(  185) = (   0.5000000   0.2886751   0.0914232), wk =   0.0081967
        k(  186) = (   0.5000000   0.2886751   0.0881581), wk =   0.0081967
        k(  187) = (   0.5000000   0.2886751   0.0848930), wk =   0.0081967
        k(  188) = (   0.5000000   0.2886751   0.0816279), wk =   0.0081967
        k(  189) = (   0.5000000   0.2886751   0.0783628), wk =   0.0081967
        k(  190) = (   0.5000000   0.2886751   0.0750977), wk =   0.0081967
        k(  191) = (   0.5000000   0.2886751   0.0718325), wk =   0.0081967
        k(  192) = (   0.5000000   0.2886751   0.0685674), wk =   0.0081967
        k(  193) = (   0.5000000   0.2886751   0.0653023), wk =   0.0081967
        k(  194) = (   0.5000000   0.2886751   0.0620372), wk =   0.0081967
        k(  195) = (   0.5000000   0.2886751   0.0587721), wk =   0.0081967
        k(  196) = (   0.5000000   0.2886751   0.0555070), wk =   0.0081967
        k(  197) = (   0.5000000   0.2886751   0.0522418), wk =   0.0081967
        k(  198) = (   0.5000000   0.2886751   0.0489767), wk =   0.0081967
        k(  199) = (   0.5000000   0.2886751   0.0457116), wk =   0.0081967
        k(  200) = (   0.5000000   0.2886751   0.0424465), wk =   0.0081967
        k(  201) = (   0.5000000   0.2886751   0.0391814), wk =   0.0081967
        k(  202) = (   0.5000000   0.2886751   0.0359163), wk =   0.0081967
        k(  203) = (   0.5000000   0.2886751   0.0326512), wk =   0.0081967
        k(  204) = (   0.5000000   0.2886751   0.0293860), wk =   0.0081967
        k(  205) = (   0.5000000   0.2886751   0.0261209), wk =   0.0081967
        k(  206) = (   0.5000000   0.2886751   0.0228558), wk =   0.0081967
        k(  207) = (   0.5000000   0.2886751   0.0195907), wk =   0.0081967
        k(  208) = (   0.5000000   0.2886751   0.0163256), wk =   0.0081967
        k(  209) = (   0.5000000   0.2886751   0.0130605), wk =   0.0081967
        k(  210) = (   0.5000000   0.2886751   0.0097953), wk =   0.0081967
        k(  211) = (   0.5000000   0.2886751   0.0065302), wk =   0.0081967
        k(  212) = (   0.5000000   0.2886751   0.0032651), wk =   0.0081967
        k(  213) = (   0.5000000   0.2886751   0.0000000), wk =   0.0081967
        k(  214) = (   0.3333333   0.5773503   0.0979535), wk =   0.0081967
        k(  215) = (   0.3333333   0.5773503   0.0946883), wk =   0.0081967
        k(  216) = (   0.3333333   0.5773503   0.0914232), wk =   0.0081967
        k(  217) = (   0.3333333   0.5773503   0.0881581), wk =   0.0081967
        k(  218) = (   0.3333333   0.5773503   0.0848930), wk =   0.0081967
        k(  219) = (   0.3333333   0.5773503   0.0816279), wk =   0.0081967
        k(  220) = (   0.3333333   0.5773503   0.0783628), wk =   0.0081967
        k(  221) = (   0.3333333   0.5773503   0.0750977), wk =   0.0081967
        k(  222) = (   0.3333333   0.5773503   0.0718325), wk =   0.0081967
        k(  223) = (   0.3333333   0.5773503   0.0685674), wk =   0.0081967
        k(  224) = (   0.3333333   0.5773503   0.0653023), wk =   0.0081967
        k(  225) = (   0.3333333   0.5773503   0.0620372), wk =   0.0081967
        k(  226) = (   0.3333333   0.5773503   0.0587721), wk =   0.0081967
        k(  227) = (   0.3333333   0.5773503   0.0555070), wk =   0.0081967
        k(  228) = (   0.3333333   0.5773503   0.0522418), wk =   0.0081967
        k(  229) = (   0.3333333   0.5773503   0.0489767), wk =   0.0081967
        k(  230) = (   0.3333333   0.5773503   0.0457116), wk =   0.0081967
        k(  231) = (   0.3333333   0.5773503   0.0424465), wk =   0.0081967
        k(  232) = (   0.3333333   0.5773503   0.0391814), wk =   0.0081967
        k(  233) = (   0.3333333   0.5773503   0.0359163), wk =   0.0081967
        k(  234) = (   0.3333333   0.5773503   0.0326512), wk =   0.0081967
        k(  235) = (   0.3333333   0.5773503   0.0293860), wk =   0.0081967
        k(  236) = (   0.3333333   0.5773503   0.0261209), wk =   0.0081967
        k(  237) = (   0.3333333   0.5773503   0.0228558), wk =   0.0081967
        k(  238) = (   0.3333333   0.5773503   0.0195907), wk =   0.0081967
        k(  239) = (   0.3333333   0.5773503   0.0163256), wk =   0.0081967
        k(  240) = (   0.3333333   0.5773503   0.0130605), wk =   0.0081967
        k(  241) = (   0.3333333   0.5773503   0.0097953), wk =   0.0081967
        k(  242) = (   0.3333333   0.5773503   0.0065302), wk =   0.0081967
        k(  243) = (   0.3333333   0.5773503   0.0032651), wk =   0.0081967
        k(  244) = (   0.3333333   0.5773503   0.0000000), wk =   0.0081967

                       cryst. coord.
        k(    1) = (   0.0000000   0.0000000   0.0000000), wk =   0.0081967
        k(    2) = (   0.0166667   0.0000000   0.0000000), wk =   0.0081967
        k(    3) = (   0.0333333   0.0000000   0.0000000), wk =   0.0081967
        k(    4) = (   0.0500000   0.0000000   0.0000000), wk =   0.0081967
        k(    5) = (   0.0666667   0.0000000   0.0000000), wk =   0.0081967
        k(    6) = (   0.0833333   0.0000000   0.0000000), wk =   0.0081967
        k(    7) = (   0.1000000   0.0000000   0.0000000), wk =   0.0081967
        k(    8) = (   0.1166667   0.0000000   0.0000000), wk =   0.0081967
        k(    9) = (   0.1333333   0.0000000   0.0000000), wk =   0.0081967
        k(   10) = (   0.1500000   0.0000000   0.0000000), wk =   0.0081967
        k(   11) = (   0.1666667   0.0000000   0.0000000), wk =   0.0081967
        k(   12) = (   0.1833333   0.0000000   0.0000000), wk =   0.0081967
        k(   13) = (   0.2000000   0.0000000   0.0000000), wk =   0.0081967
        k(   14) = (   0.2166667  -0.0000000   0.0000000), wk =   0.0081967
        k(   15) = (   0.2333333   0.0000000   0.0000000), wk =   0.0081967
        k(   16) = (   0.2500000   0.0000000   0.0000000), wk =   0.0081967
        k(   17) = (   0.2666667   0.0000000   0.0000000), wk =   0.0081967
        k(   18) = (   0.2833333   0.0000000   0.0000000), wk =   0.0081967
        k(   19) = (   0.3000000   0.0000000   0.0000000), wk =   0.0081967
        k(   20) = (   0.3166667   0.0000000   0.0000000), wk =   0.0081967
        k(   21) = (   0.3333333   0.0000000   0.0000000), wk =   0.0081967
        k(   22) = (   0.3500000   0.0000000   0.0000000), wk =   0.0081967
        k(   23) = (   0.3666667   0.0000000   0.0000000), wk =   0.0081967
        k(   24) = (   0.3833333   0.0000000   0.0000000), wk =   0.0081967
        k(   25) = (   0.4000000   0.0000000   0.0000000), wk =   0.0081967
        k(   26) = (   0.4166667   0.0000000   0.0000000), wk =   0.0081967
        k(   27) = (   0.4333333  -0.0000000   0.0000000), wk =   0.0081967
        k(   28) = (   0.4500000   0.0000000   0.0000000), wk =   0.0081967
        k(   29) = (   0.4666667   0.0000000   0.0000000), wk =   0.0081967
        k(   30) = (   0.4833333  -0.0000000   0.0000000), wk =   0.0081967
        k(   31) = (   0.5000000   0.0000000   0.0000000), wk =   0.0081967
        k(   32) = (   0.4944444   0.0111111   0.0000000), wk =   0.0081967
        k(   33) = (   0.4888889   0.0222222   0.0000000), wk =   0.0081967
        k(   34) = (   0.4833333   0.0333333   0.0000000), wk =   0.0081967
        k(   35) = (   0.4777778   0.0444444   0.0000000), wk =   0.0081967
        k(   36) = (   0.4722222   0.0555556   0.0000000), wk =   0.0081967
        k(   37) = (   0.4666667   0.0666667   0.0000000), wk =   0.0081967
        k(   38) = (   0.4611111   0.0777778   0.0000000), wk =   0.0081967
        k(   39) = (   0.4555556   0.0888889   0.0000000), wk =   0.0081967
        k(   40) = (   0.4500000   0.1000000   0.0000000), wk =   0.0081967
        k(   41) = (   0.4444444   0.1111111   0.0000000), wk =   0.0081967
        k(   42) = (   0.4388889   0.1222222   0.0000000), wk =   0.0081967
        k(   43) = (   0.4333333   0.1333333   0.0000000), wk =   0.0081967
        k(   44) = (   0.4277778   0.1444444   0.0000000), wk =   0.0081967
        k(   45) = (   0.4222222   0.1555556   0.0000000), wk =   0.0081967
        k(   46) = (   0.4166667   0.1666667   0.0000000), wk =   0.0081967
        k(   47) = (   0.4111111   0.1777778   0.0000000), wk =   0.0081967
        k(   48) = (   0.4055556   0.1888889   0.0000000), wk =   0.0081967
        k(   49) = (   0.4000000   0.2000000   0.0000000), wk =   0.0081967
        k(   50) = (   0.3944444   0.2111111   0.0000000), wk =   0.0081967
        k(   51) = (   0.3888889   0.2222222   0.0000000), wk =   0.0081967
        k(   52) = (   0.3833333   0.2333333   0.0000000), wk =   0.0081967
        k(   53) = (   0.3777778   0.2444444   0.0000000), wk =   0.0081967
        k(   54) = (   0.3722222   0.2555556   0.0000000), wk =   0.0081967
        k(   55) = (   0.3666667   0.2666667   0.0000000), wk =   0.0081967
        k(   56) = (   0.3611111   0.2777778   0.0000000), wk =   0.0081967
        k(   57) = (   0.3555556   0.2888889   0.0000000), wk =   0.0081967
        k(   58) = (   0.3500000   0.3000000   0.0000000), wk =   0.0081967
        k(   59) = (   0.3444444   0.3111111   0.0000000), wk =   0.0081967
        k(   60) = (   0.3388889   0.3222222   0.0000000), wk =   0.0081967
        k(   61) = (   0.3333333   0.3333333   0.0000000), wk =   0.0081967
        k(   62) = (   0.3222222   0.3222222   0.0000000), wk =   0.0081967
        k(   63) = (   0.3111111   0.3111111   0.0000000), wk =   0.0081967
        k(   64) = (   0.3000000   0.3000000   0.0000000), wk =   0.0081967
        k(   65) = (   0.2888889   0.2888889   0.0000000), wk =   0.0081967
        k(   66) = (   0.2777778   0.2777778   0.0000000), wk =   0.0081967
        k(   67) = (   0.2666667   0.2666667   0.0000000), wk =   0.0081967
        k(   68) = (   0.2555556   0.2555556   0.0000000), wk =   0.0081967
        k(   69) = (   0.2444444   0.2444444   0.0000000), wk =   0.0081967
        k(   70) = (   0.2333333   0.2333333   0.0000000), wk =   0.0081967
        k(   71) = (   0.2222222   0.2222222   0.0000000), wk =   0.0081967
        k(   72) = (   0.2111111   0.2111111   0.0000000), wk =   0.0081967
        k(   73) = (   0.2000000   0.2000000   0.0000000), wk =   0.0081967
        k(   74) = (   0.1888889   0.1888889   0.0000000), wk =   0.0081967
        k(   75) = (   0.1777778   0.1777778   0.0000000), wk =   0.0081967
        k(   76) = (   0.1666667   0.1666667   0.0000000), wk =   0.0081967
        k(   77) = (   0.1555556   0.1555556   0.0000000), wk =   0.0081967
        k(   78) = (   0.1444444   0.1444444   0.0000000), wk =   0.0081967
        k(   79) = (   0.1333333   0.1333333   0.0000000), wk =   0.0081967
        k(   80) = (   0.1222222   0.1222222   0.0000000), wk =   0.0081967
        k(   81) = (   0.1111111   0.1111111   0.0000000), wk =   0.0081967
        k(   82) = (   0.1000000   0.1000000   0.0000000), wk =   0.0081967
        k(   83) = (   0.0888889   0.0888889   0.0000000), wk =   0.0081967
        k(   84) = (   0.0777778   0.0777778   0.0000000), wk =   0.0081967
        k(   85) = (   0.0666667   0.0666667   0.0000000), wk =   0.0081967
        k(   86) = (   0.0555556   0.0555556   0.0000000), wk =   0.0081967
        k(   87) = (   0.0444444   0.0444444   0.0000000), wk =   0.0081967
        k(   88) = (   0.0333333   0.0333333   0.0000000), wk =   0.0081967
        k(   89) = (   0.0222222   0.0222222   0.0000000), wk =   0.0081967
        k(   90) = (   0.0111111   0.0111111   0.0000000), wk =   0.0081967
        k(   91) = (   0.0000000   0.0000000   0.0000000), wk =   0.0081967
        k(   92) = (   0.0000000   0.0000000   0.5000000), wk =   0.0081967
        k(   93) = (   0.0166667   0.0000000   0.5000000), wk =   0.0081967
        k(   94) = (   0.0333333   0.0000000   0.5000000), wk =   0.0081967
        k(   95) = (   0.0500000   0.0000000   0.5000000), wk =   0.0081967
        k(   96) = (   0.0666667   0.0000000   0.5000000), wk =   0.0081967
        k(   97) = (   0.0833333   0.0000000   0.5000000), wk =   0.0081967
        k(   98) = (   0.1000000   0.0000000   0.5000000), wk =   0.0081967
        k(   99) = (   0.1166667   0.0000000   0.5000000), wk =   0.0081967
        k(  100) = (   0.1333333   0.0000000   0.5000000), wk =   0.0081967
        k(  101) = (   0.1500000   0.0000000   0.5000000), wk =   0.0081967
        k(  102) = (   0.1666667   0.0000000   0.5000000), wk =   0.0081967
        k(  103) = (   0.1833333   0.0000000   0.5000000), wk =   0.0081967
        k(  104) = (   0.2000000   0.0000000   0.5000000), wk =   0.0081967
        k(  105) = (   0.2166667  -0.0000000   0.5000000), wk =   0.0081967
        k(  106) = (   0.2333333   0.0000000   0.5000000), wk =   0.0081967
        k(  107) = (   0.2500000   0.0000000   0.5000000), wk =   0.0081967
        k(  108) = (   0.2666667   0.0000000   0.5000000), wk =   0.0081967
        k(  109) = (   0.2833333   0.0000000   0.5000000), wk =   0.0081967
        k(  110) = (   0.3000000   0.0000000   0.5000000), wk =   0.0081967
        k(  111) = (   0.3166667   0.0000000   0.5000000), wk =   0.0081967
        k(  112) = (   0.3333333   0.0000000   0.5000000), wk =   0.0081967
        k(  113) = (   0.3500000   0.0000000   0.5000000), wk =   0.0081967
        k(  114) = (   0.3666667   0.0000000   0.5000000), wk =   0.0081967
        k(  115) = (   0.3833333   0.0000000   0.5000000), wk =   0.0081967
        k(  116) = (   0.4000000   0.0000000   0.5000000), wk =   0.0081967
        k(  117) = (   0.4166667   0.0000000   0.5000000), wk =   0.0081967
        k(  118) = (   0.4333333  -0.0000000   0.5000000), wk =   0.0081967
        k(  119) = (   0.4500000   0.0000000   0.5000000), wk =   0.0081967
        k(  120) = (   0.4666667   0.0000000   0.5000000), wk =   0.0081967
        k(  121) = (   0.4833333  -0.0000000   0.5000000), wk =   0.0081967
        k(  122) = (   0.5000000   0.0000000   0.5000000), wk =   0.0081967
        k(  123) = (   0.4944444   0.0111111   0.5000000), wk =   0.0081967
        k(  124) = (   0.4888889   0.0222222   0.5000000), wk =   0.0081967
        k(  125) = (   0.4833333   0.0333333   0.5000000), wk =   0.0081967
        k(  126) = (   0.4777778   0.0444444   0.5000000), wk =   0.0081967
        k(  127) = (   0.4722222   0.0555556   0.5000000), wk =   0.0081967
        k(  128) = (   0.4666667   0.0666667   0.5000000), wk =   0.0081967
        k(  129) = (   0.4611111   0.0777778   0.5000000), wk =   0.0081967
        k(  130) = (   0.4555556   0.0888889   0.5000000), wk =   0.0081967
        k(  131) = (   0.4500000   0.1000000   0.5000000), wk =   0.0081967
        k(  132) = (   0.4444444   0.1111111   0.5000000), wk =   0.0081967
        k(  133) = (   0.4388889   0.1222222   0.5000000), wk =   0.0081967
        k(  134) = (   0.4333333   0.1333333   0.5000000), wk =   0.0081967
        k(  135) = (   0.4277778   0.1444444   0.5000000), wk =   0.0081967
        k(  136) = (   0.4222222   0.1555556   0.5000000), wk =   0.0081967
        k(  137) = (   0.4166667   0.1666667   0.5000000), wk =   0.0081967
        k(  138) = (   0.4111111   0.1777778   0.5000000), wk =   0.0081967
        k(  139) = (   0.4055556   0.1888889   0.5000000), wk =   0.0081967
        k(  140) = (   0.4000000   0.2000000   0.5000000), wk =   0.0081967
        k(  141) = (   0.3944444   0.2111111   0.5000000), wk =   0.0081967
        k(  142) = (   0.3888889   0.2222222   0.5000000), wk =   0.0081967
        k(  143) = (   0.3833333   0.2333333   0.5000000), wk =   0.0081967
        k(  144) = (   0.3777778   0.2444444   0.5000000), wk =   0.0081967
        k(  145) = (   0.3722222   0.2555556   0.5000000), wk =   0.0081967
        k(  146) = (   0.3666667   0.2666667   0.5000000), wk =   0.0081967
        k(  147) = (   0.3611111   0.2777778   0.5000000), wk =   0.0081967
        k(  148) = (   0.3555556   0.2888889   0.5000000), wk =   0.0081967
        k(  149) = (   0.3500000   0.3000000   0.5000000), wk =   0.0081967
        k(  150) = (   0.3444444   0.3111111   0.5000000), wk =   0.0081967
        k(  151) = (   0.3388889   0.3222222   0.5000000), wk =   0.0081967
        k(  152) = (   0.3333333   0.3333333   0.5000000), wk =   0.0081967
        k(  153) = (   0.3222222   0.3222222   0.5000000), wk =   0.0081967
        k(  154) = (   0.3111111   0.3111111   0.5000000), wk =   0.0081967
        k(  155) = (   0.3000000   0.3000000   0.5000000), wk =   0.0081967
        k(  156) = (   0.2888889   0.2888889   0.5000000), wk =   0.0081967
        k(  157) = (   0.2777778   0.2777778   0.5000000), wk =   0.0081967
        k(  158) = (   0.2666667   0.2666667   0.5000000), wk =   0.0081967
        k(  159) = (   0.2555556   0.2555556   0.5000000), wk =   0.0081967
        k(  160) = (   0.2444444   0.2444444   0.5000000), wk =   0.0081967
        k(  161) = (   0.2333333   0.2333333   0.5000000), wk =   0.0081967
        k(  162) = (   0.2222222   0.2222222   0.5000000), wk =   0.0081967
        k(  163) = (   0.2111111   0.2111111   0.5000000), wk =   0.0081967
        k(  164) = (   0.2000000   0.2000000   0.5000000), wk =   0.0081967
        k(  165) = (   0.1888889   0.1888889   0.5000000), wk =   0.0081967
        k(  166) = (   0.1777778   0.1777778   0.5000000), wk =   0.0081967
        k(  167) = (   0.1666667   0.1666667   0.5000000), wk =   0.0081967
        k(  168) = (   0.1555556   0.1555556   0.5000000), wk =   0.0081967
        k(  169) = (   0.1444444   0.1444444   0.5000000), wk =   0.0081967
        k(  170) = (   0.1333333   0.1333333   0.5000000), wk =   0.0081967
        k(  171) = (   0.1222222   0.1222222   0.5000000), wk =   0.0081967
        k(  172) = (   0.1111111   0.1111111   0.5000000), wk =   0.0081967
        k(  173) = (   0.1000000   0.1000000   0.5000000), wk =   0.0081967
        k(  174) = (   0.0888889   0.0888889   0.5000000), wk =   0.0081967
        k(  175) = (   0.0777778   0.0777778   0.5000000), wk =   0.0081967
        k(  176) = (   0.0666667   0.0666667   0.5000000), wk =   0.0081967
        k(  177) = (   0.0555556   0.0555556   0.5000000), wk =   0.0081967
        k(  178) = (   0.0444444   0.0444444   0.5000000), wk =   0.0081967
        k(  179) = (   0.0333333   0.0333333   0.5000000), wk =   0.0081967
        k(  180) = (   0.0222222   0.0222222   0.5000000), wk =   0.0081967
        k(  181) = (   0.0111111   0.0111111   0.5000000), wk =   0.0081967
        k(  182) = (   0.0000000   0.0000000   0.5000000), wk =   0.0081967
        k(  183) = (   0.5000000   0.0000000   0.5000000), wk =   0.0081967
        k(  184) = (   0.5000000   0.0000000   0.4833333), wk =   0.0081967
        k(  185) = (   0.5000000   0.0000000   0.4666667), wk =   0.0081967
        k(  186) = (   0.5000000   0.0000000   0.4500000), wk =   0.0081967
        k(  187) = (   0.5000000   0.0000000   0.4333333), wk =   0.0081967
        k(  188) = (   0.5000000   0.0000000   0.4166667), wk =   0.0081967
        k(  189) = (   0.5000000   0.0000000   0.4000000), wk =   0.0081967
        k(  190) = (   0.5000000   0.0000000   0.3833333), wk =   0.0081967
        k(  191) = (   0.5000000   0.0000000   0.3666667), wk =   0.0081967
        k(  192) = (   0.5000000   0.0000000   0.3500000), wk =   0.0081967
        k(  193) = (   0.5000000   0.0000000   0.3333333), wk =   0.0081967
        k(  194) = (   0.5000000   0.0000000   0.3166667), wk =   0.0081967
        k(  195) = (   0.5000000   0.0000000   0.3000000), wk =   0.0081967
        k(  196) = (   0.5000000   0.0000000   0.2833333), wk =   0.0081967
        k(  197) = (   0.5000000   0.0000000   0.2666667), wk =   0.0081967
        k(  198) = (   0.5000000   0.0000000   0.2500000), wk =   0.0081967
        k(  199) = (   0.5000000   0.0000000   0.2333333), wk =   0.0081967
        k(  200) = (   0.5000000   0.0000000   0.2166667), wk =   0.0081967
        k(  201) = (   0.5000000   0.0000000   0.2000000), wk =   0.0081967
        k(  202) = (   0.5000000   0.0000000   0.1833333), wk =   0.0081967
        k(  203) = (   0.5000000   0.0000000   0.1666667), wk =   0.0081967
        k(  204) = (   0.5000000   0.0000000   0.1500000), wk =   0.0081967
        k(  205) = (   0.5000000   0.0000000   0.1333333), wk =   0.0081967
        k(  206) = (   0.5000000   0.0000000   0.1166667), wk =   0.0081967
        k(  207) = (   0.5000000   0.0000000   0.1000000), wk =   0.0081967
        k(  208) = (   0.5000000   0.0000000   0.0833333), wk =   0.0081967
        k(  209) = (   0.5000000   0.0000000   0.0666667), wk =   0.0081967
        k(  210) = (   0.5000000   0.0000000   0.0500000), wk =   0.0081967
        k(  211) = (   0.5000000   0.0000000   0.0333333), wk =   0.0081967
        k(  212) = (   0.5000000   0.0000000   0.0166667), wk =   0.0081967
        k(  213) = (   0.5000000   0.0000000   0.0000000), wk =   0.0081967
        k(  214) = (   0.3333333   0.3333333   0.5000000), wk =   0.0081967
        k(  215) = (   0.3333333   0.3333333   0.4833333), wk =   0.0081967
        k(  216) = (   0.3333333   0.3333333   0.4666667), wk =   0.0081967
        k(  217) = (   0.3333333   0.3333333   0.4500000), wk =   0.0081967
        k(  218) = (   0.3333333   0.3333333   0.4333333), wk =   0.0081967
        k(  219) = (   0.3333333   0.3333333   0.4166667), wk =   0.0081967
        k(  220) = (   0.3333333   0.3333333   0.4000000), wk =   0.0081967
        k(  221) = (   0.3333333   0.3333333   0.3833333), wk =   0.0081967
        k(  222) = (   0.3333333   0.3333333   0.3666667), wk =   0.0081967
        k(  223) = (   0.3333333   0.3333333   0.3500000), wk =   0.0081967
        k(  224) = (   0.3333333   0.3333333   0.3333333), wk =   0.0081967
        k(  225) = (   0.3333333   0.3333333   0.3166667), wk =   0.0081967
        k(  226) = (   0.3333333   0.3333333   0.3000000), wk =   0.0081967
        k(  227) = (   0.3333333   0.3333333   0.2833333), wk =   0.0081967
        k(  228) = (   0.3333333   0.3333333   0.2666667), wk =   0.0081967
        k(  229) = (   0.3333333   0.3333333   0.2500000), wk =   0.0081967
        k(  230) = (   0.3333333   0.3333333   0.2333333), wk =   0.0081967
        k(  231) = (   0.3333333   0.3333333   0.2166667), wk =   0.0081967
        k(  232) = (   0.3333333   0.3333333   0.2000000), wk =   0.0081967
        k(  233) = (   0.3333333   0.3333333   0.1833333), wk =   0.0081967
        k(  234) = (   0.3333333   0.3333333   0.1666667), wk =   0.0081967
        k(  235) = (   0.3333333   0.3333333   0.1500000), wk =   0.0081967
        k(  236) = (   0.3333333   0.3333333   0.1333333), wk =   0.0081967
        k(  237) = (   0.3333333   0.3333333   0.1166667), wk =   0.0081967
        k(  238) = (   0.3333333   0.3333333   0.1000000), wk =   0.0081967
        k(  239) = (   0.3333333   0.3333333   0.0833333), wk =   0.0081967
        k(  240) = (   0.3333333   0.3333333   0.0666667), wk =   0.0081967
        k(  241) = (   0.3333333   0.3333333   0.0500000), wk =   0.0081967
        k(  242) = (   0.3333333   0.3333333   0.0333333), wk =   0.0081967
        k(  243) = (   0.3333333   0.3333333   0.0166667), wk =   0.0081967
        k(  244) = (   0.3333333   0.3333333   0.0000000), wk =   0.0081967

     Dense  grid:    56613 G-vectors     FFT dimensions: (  30,  30, 150)

     Dynamical RAM for                 wfc:       0.36 MB

     Dynamical RAM for     wfc (w. buffer):       0.36 MB

     Dynamical RAM for           str. fact:       0.14 MB

     Dynamical RAM for           local pot:       0.00 MB

     Dynamical RAM for          nlocal pot:       0.22 MB

     Dynamical RAM for                qrad:       1.78 MB

     Dynamical RAM for          rho,v,vnew:       0.48 MB

     Dynamical RAM for           G-vectors:       0.31 MB

     Dynamical RAM for          h,s,v(r/c):       0.13 MB

     Dynamical RAM for          <psi|beta>:       0.02 MB

     Dynamical RAM for                 psi:       1.43 MB

     Dynamical RAM for                hpsi:       1.43 MB

     Dynamical RAM for      wfcinit/wfcrot:       0.75 MB

     Estimated static dynamical RAM per process >       3.95 MB

     Estimated max dynamical RAM per process >       6.96 MB

     Estimated total dynamical RAM >     584.59 MB

     Check: negative core charge=   -0.000110

     The potential is recalculated from file :
     run_output/MoS2_2D.save/charge-density

     Starting wfcs are   28 randomized atomic wfcs +   12 random wfcs

     Band Structure Calculation
     Davidson diagonalization with overlap

     Computing kpt #:     1  of    35 on this pool
     total cpu time spent up to now is        1.4 secs

     Computing kpt #:     2  of    35 on this pool
     total cpu time spent up to now is        2.0 secs

     Computing kpt #:     3  of    35 on this pool
     total cpu time spent up to now is        2.4 secs

     Computing kpt #:     4  of    35 on this pool
     total cpu time spent up to now is        3.0 secs

     Computing kpt #:     5  of    35 on this pool
     total cpu time spent up to now is        3.5 secs

     Computing kpt #:     6  of    35 on this pool
     total cpu time spent up to now is        3.9 secs

     Computing kpt #:     7  of    35 on this pool
     total cpu time spent up to now is        4.4 secs

     Computing kpt #:     8  of    35 on this pool
     total cpu time spent up to now is        5.0 secs

     Computing kpt #:     9  of    35 on this pool
     total cpu time spent up to now is        5.5 secs

     Computing kpt #:    10  of    35 on this pool
     total cpu time spent up to now is        6.0 secs

     Computing kpt #:    11  of    35 on this pool
     total cpu time spent up to now is        7.5 secs

     Computing kpt #:    12  of    35 on this pool
     total cpu time spent up to now is        8.1 secs

     Computing kpt #:    13  of    35 on this pool
     total cpu time spent up to now is        8.6 secs

     Computing kpt #:    14  of    35 on this pool
     total cpu time spent up to now is        9.2 secs

     Computing kpt #:    15  of    35 on this pool
     total cpu time spent up to now is        9.7 secs

     Computing kpt #:    16  of    35 on this pool
     total cpu time spent up to now is       10.2 secs

     Computing kpt #:    17  of    35 on this pool
     total cpu time spent up to now is       10.7 secs

     Computing kpt #:    18  of    35 on this pool
     total cpu time spent up to now is       11.2 secs

     Computing kpt #:    19  of    35 on this pool
     total cpu time spent up to now is       11.7 secs

     Computing kpt #:    20  of    35 on this pool
     total cpu time spent up to now is       12.2 secs

     Computing kpt #:    21  of    35 on this pool
     total cpu time spent up to now is       12.8 secs

     Computing kpt #:    22  of    35 on this pool
     total cpu time spent up to now is       13.3 secs

     Computing kpt #:    23  of    35 on this pool
     total cpu time spent up to now is       13.8 secs

     Computing kpt #:    24  of    35 on this pool
     total cpu time spent up to now is       14.3 secs

     Computing kpt #:    25  of    35 on this pool
     total cpu time spent up to now is       14.8 secs

     Computing kpt #:    26  of    35 on this pool
     total cpu time spent up to now is       15.3 secs

     Computing kpt #:    27  of    35 on this pool
     total cpu time spent up to now is       16.0 secs

     Computing kpt #:    28  of    35 on this pool
     total cpu time spent up to now is       16.5 secs

     Computing kpt #:    29  of    35 on this pool
     total cpu time spent up to now is       16.9 secs

     Computing kpt #:    30  of    35 on this pool
     total cpu time spent up to now is       17.4 secs

     Computing kpt #:    31  of    35 on this pool
     total cpu time spent up to now is       20.8 secs

     Computing kpt #:    32  of    35 on this pool
     total cpu time spent up to now is       21.3 secs

     Computing kpt #:    33  of    35 on this pool
     total cpu time spent up to now is       21.8 secs

     Computing kpt #:    34  of    35 on this pool
     total cpu time spent up to now is       22.2 secs

     Computing kpt #:    35  of    35 on this pool
     total cpu time spent up to now is       22.7 secs

     ethr =  1.00E-06,  avg # of iterations = 17.7

     total cpu time spent up to now is       22.7 secs

     End of band structure calculation

          k = 0.0000 0.0000 0.0000 (  7087 PWs)   bands (ev):

   -60.0192 -34.5055 -34.1927 -34.1927 -13.9247 -12.5319  -5.4855  -2.2746
    -2.2746  -1.5382  -1.0815  -1.0815   0.2326   3.3519   3.3519   3.6428
     3.6428   5.1025   5.7742   6.6068   7.1171   8.6692   9.5871  10.4499
    11.2868  11.2868  13.3061  13.3061  13.4606  13.5350  15.4576  16.7035
    16.7035  16.7067  17.1168  17.1168  18.9773  19.6742  20.5814  21.2940

          k = 0.0167 0.0096 0.0000 (  7073 PWs)   bands (ev):

   -60.0182 -34.5051 -34.1939 -34.1928 -13.9201 -12.5300  -5.4802  -2.2849
    -2.2696  -1.5716  -1.0891  -1.0541   0.2316   3.3436   3.3603   3.6265
     3.6372   5.1093   5.7800   6.6221   7.1310   8.6744   9.6088  10.4514
    11.2774  11.3015  13.2602  13.3073  13.4624  13.5433  15.4577  16.6590
    16.7122  16.7669  17.1009  17.1157  18.9937  19.6912  20.6199  21.2923

          k = 0.0333 0.0192 0.0000 (  7073 PWs)   bands (ev):

   -60.0178 -34.5043 -34.1978 -34.1939 -13.9063 -12.5245  -5.4646  -2.3156
    -2.2549  -1.6548  -1.1118  -0.9895   0.2285   3.3198   3.3853   3.5791
     3.6205   5.1294   5.7973   6.6655   7.1738   8.6898   9.6726  10.4553
    11.2511  11.3448  13.1351  13.3106  13.4664  13.5626  15.4576  16.5568
    16.7379  16.9147  17.0531  17.1120  19.0427  19.7372  20.7338  21.2872

          k = 0.0500 0.0289 0.0000 (  7063 PWs)   bands (ev):

   -60.0164 -34.5030 -34.2045 -34.1952 -13.8833 -12.5153  -5.4388  -2.3654
    -2.2305  -1.7636  -1.1487  -0.9127   0.2226   3.2836   3.4259   3.5049
     3.5934   5.1620   5.8260   6.7305   7.2487   8.7152   9.7752  10.4591
    11.2130  11.4164  12.9532  13.3166  13.4681  13.5886  15.4573  16.4050
    16.7799  16.9754  17.1074  17.1396  19.1241  19.8026  20.9171  21.2786

          k = 0.0667 0.0385 0.0000 (  7057 PWs)   bands (ev):

   -60.0150 -34.5008 -34.2140 -34.1973 -13.8514 -12.5025  -5.4033  -2.4328
    -2.1966  -1.8851  -1.1987  -0.8375   0.2132   3.2395   3.4096   3.4807
     3.5568   5.2062   5.8661   6.8085   7.3594   8.7503   9.9111  10.4587
    11.1708  11.5152  12.7353  13.3266  13.4618  13.6203  15.4561  16.2209
    16.8371  16.8699  17.1041  17.4218  19.2368  19.8807  21.1576  21.2653

          k = 0.0833 0.0481 0.0000 (  7065 PWs)   bands (ev):

   -60.0143 -34.4986 -34.2260 -34.2000 -13.8107 -12.4862  -5.3588  -2.5153
    -2.1535  -2.0138  -1.2601  -0.7712   0.1990   3.1932   3.3000   3.5117
     3.5476   5.2614   5.9173   6.8920   7.5072   8.7947  10.0724  10.4489
    11.1340  11.6399  12.5000  13.3415  13.4413  13.6568  15.4526  16.0206
    16.7397  16.9078  17.1054  17.7439  19.3790  19.9698  21.2429  21.4358

          k = 0.1000 0.0577 0.0000 (  7043 PWs)   bands (ev):

   -60.0113 -34.4956 -34.2398 -34.2029 -13.7613 -12.4664  -5.3062  -2.6103
    -2.1467  -2.1015  -1.3313  -0.7181   0.1785   3.1505   3.1824   3.4596
     3.6247   5.3272   5.9796   6.9775   7.6896   8.8479  10.2478  10.4251
    11.1110  11.7889  12.2651  13.3631  13.4022  13.6960  15.4444  15.8187
    16.5882  16.9906  17.1160  18.0919  19.5472  20.0711  21.1927  21.7143

          k = 0.1167 0.0674 0.0000 (  7045 PWs)   bands (ev):

   -60.0097 -34.4923 -34.2563 -34.2066 -13.7038 -12.4434  -5.2468  -2.7150
    -2.2823  -2.0412  -1.4104  -0.6812   0.1500   3.0631   3.1168   3.4020
     3.7097   5.4033   6.0526   7.0641   7.9000   8.9088  10.3863  10.4197
    11.1062  11.9599  12.0509  13.3423  13.3927  13.7343  15.4285  15.6277
    16.4186  17.0832  17.1402  18.4532  19.7360  20.1851  21.0238  21.5375

          k = 0.1333 0.0770 0.0000 (  7043 PWs)   bands (ev):

   -60.0076 -34.4885 -34.2746 -34.2108 -13.6385 -12.4172  -5.1822  -2.8262
    -2.4196  -1.9729  -1.4957  -0.6622   0.1118   2.9481   3.0969   3.3403
     3.8003   5.4896   6.1363   7.1526   8.1299   8.9761  10.3362  10.5581
    11.1188  11.8882  12.1510  13.2628  13.4318  13.7663  15.4015  15.4600
    16.2345  17.1818  17.1838  18.8155  19.9346  20.3008  20.6085  21.0762

          k = 0.1500 0.0866 0.0000 (  7041 PWs)   bands (ev):

   -60.0053 -34.4845 -34.2946 -34.2153 -13.5656 -12.3881  -5.1145  -2.9404
    -2.5581  -1.8974  -1.5855  -0.6617   0.0625   2.8427   3.0939   3.2763
     3.8945   5.5861   6.2301   7.2437   8.3688   9.0479  10.2826  10.6193
    11.1448  11.8197  12.3593  13.1680  13.4820  13.7857  15.3288  15.3610
    16.0393  17.2428  17.2899  19.1645  19.9866  20.2421  20.2857  20.7336

          k = 0.1667 0.0962 0.0000 (  7045 PWs)   bands (ev):

   -60.0032 -34.4801 -34.3163 -34.2203 -13.4858 -12.3562  -5.0464  -3.0541
    -2.6973  -1.8155  -1.6784  -0.6790   0.0012   2.7513   3.1095   3.2114
     3.9902   5.6927   6.3339   7.3376   8.6038   9.1207  10.2348  10.5782
    11.1794  11.8685  12.5816  13.0652  13.5443  13.7874  15.2459  15.3059
    15.8373  17.3226  17.3997  19.4790  19.4921  19.8980  20.4034  20.8045

          k = 0.1833 0.1058 0.0000 (  7051 PWs)   bands (ev):

   -60.0011 -34.4756 -34.3392 -34.2256 -13.3995 -12.3218  -4.9816  -3.1635
    -2.8367  -1.7728  -1.7279  -0.7126  -0.0720   2.6772   3.1440   3.1471
     4.0855   5.8095   6.4470   7.4343   8.8182   9.1891  10.2026  10.4652
    11.2200  12.0013  12.8134  12.9643  13.6199  13.7730  15.2187  15.2374
    15.6330  17.4182  17.5113  18.9526  19.3726  19.8016  20.4699  20.7461

          k = 0.2000 0.1155 0.0000 (  7047 PWs)   bands (ev):

   -59.9982 -34.4709 -34.3629 -34.2310 -13.3074 -12.2851  -4.9243  -3.2644
    -2.9762  -1.8676  -1.6356  -0.7597  -0.1554   2.6224   3.0848   3.1963
     4.1791   5.9363   6.5690   7.5334   8.9916   9.2433  10.1930  10.3320
    11.2688  12.1621  12.8759  13.0486  13.7097  13.7560  15.1588  15.2465
    15.4336  17.5228  17.6227  18.4211  18.8881  20.0417  20.0970  20.9169

          k = 0.2167 0.1251 0.0000 (  7025 PWs)   bands (ev):

   -59.9941 -34.4656 -34.3870 -34.2365 -13.2100 -12.2465  -4.8795  -3.3525
    -3.1151  -1.9616  -1.5396  -0.8174  -0.2463   2.5876   3.0258   3.2642
     4.2694   6.0729   6.6992   7.6343   9.1062   9.2682  10.2045  10.2208
    11.3347  12.3044  12.8104  13.2761  13.7619  13.8140  15.0751  15.2498
    15.3227  17.6011  17.7326  17.9336  18.4051  19.6504  20.2550  20.6507

          k = 0.2333 0.1347 0.0000 (  7027 PWs)   bands (ev):

   -59.9915 -34.4606 -34.4120 -34.2423 -13.1083 -12.2063  -4.8524  -3.4240
    -3.2533  -2.0540  -1.4411  -0.8827  -0.3406   2.5721   2.9714   3.3449
     4.3554   6.2191   6.8365   7.7361   9.1559   9.2480  10.1610  10.2203
    11.4308  12.3940  12.7753  13.4761  13.8182  13.9326  14.9926  15.1012
    15.4369  17.3145  17.8238  17.8386  17.9356  19.2012  20.2555  20.4716

          k = 0.2500 0.1443 0.0000 (  7009 PWs)   bands (ev):

   -59.9875 -34.4552 -34.4369 -34.2480 -13.0029 -12.1648  -4.8470  -3.4768
    -3.3901  -2.1439  -1.3414  -0.9522  -0.4330   2.5746   2.9224   3.4355
     4.4362   6.3745   6.9796   7.8378   9.1473   9.1805  10.1617  10.2209
    11.5624  12.4176  12.7749  13.6148  13.9373  14.0654  14.9198  15.0223
    15.5789  16.8260  17.4855  17.9158  17.9402  18.7737  19.8771  20.6367

          k = 0.2667 0.1540 0.0000 (  7023 PWs)   bands (ev):

   -59.9856 -34.4622 -34.4501 -34.2540 -12.8948 -12.1224  -4.8652  -3.5248
    -3.5118  -2.2306  -1.2416  -1.0235  -0.5181   2.5933   2.8799   3.5326
     4.5112   6.5386   7.1269   7.9382   9.0830   9.0891  10.2029  10.2090
    11.7144  12.3866  12.8124  13.6530  14.1068  14.2114  14.8655  15.0516
    15.7356  16.3364  17.0642  17.9475  18.0358  18.4339  19.4954  20.7889

          k = 0.2833 0.1636 0.0000 (  7018 PWs)   bands (ev):

   -59.9825 -34.4869 -34.4449 -34.2597 -12.7849 -12.0796  -4.9052  -3.6567
    -3.5326  -2.3134  -1.1432  -1.0942  -0.5903   2.6259   2.8446   3.6332
     4.5801   6.7107   7.2757   8.0360   8.9783   8.9873  10.1809  10.2822
    11.8543  12.3239  12.8932  13.5856  14.3016  14.3697  14.8387  15.1946
    15.8598  15.8778  16.7005  17.7304  18.1250  18.3606  19.1285  20.8972

          k = 0.3000 0.1732 0.0000 (  7022 PWs)   bands (ev):

   -59.9801 -34.5113 -34.4396 -34.2654 -12.6744 -12.0368  -4.9634  -3.7848
    -3.5458  -2.3919  -1.1625  -1.0476  -0.6444   2.6703   2.8170   3.7342
     4.6425   6.8894   7.4226   8.1288   8.8481   8.8839  10.1714  10.3644
    11.9494  12.2499  13.0195  13.4464  14.4937  14.5387  14.8398  15.4072
    15.4168  15.9014  16.5025  17.3742  18.2074  18.4436  18.7841  20.7791

          k = 0.3167 0.1828 0.0000 (  7026 PWs)   bands (ev):

   -59.9777 -34.5348 -34.4348 -34.2707 -12.5644 -11.9946  -5.0344  -3.9084
    -3.5580  -2.4655  -1.2271  -0.9560  -0.6770   2.7246   2.7974   3.8328
     4.6985   7.0726   7.5625   8.2087   8.6882   8.8128  10.1841  10.4431
    11.9850  12.1803  13.1810  13.2703  14.6455  14.7160  14.7935  15.0595
    15.6829  15.7239  16.5703  17.0160  18.2828  18.4709  18.5492  20.5321

          k = 0.3333 0.1925 0.0000 (  7036 PWs)   bands (ev):

   -59.9758 -34.5572 -34.4302 -34.2759 -12.4562 -11.9534  -5.1135  -4.0262
    -3.5743  -2.5339  -1.2869  -0.8697  -0.6863   2.7858   2.7868   3.9263
     4.7482   7.2563   7.6889   8.2371   8.5596   8.7755  10.2197  10.5082
    11.9679  12.1267  13.0791  13.3479  14.4703  14.6875  14.8989  15.0448
    15.5519  15.9704  16.6942  16.7463  18.2012  18.3514  18.6474  20.2806

          k = 0.3500 0.2021 0.0000 (  7042 PWs)   bands (ev):

   -59.9738 -34.5783 -34.4257 -34.2808 -12.3513 -11.9138  -5.1962  -4.1372
    -3.5975  -2.5967  -1.3412  -0.7898  -0.6726   2.7816   2.8552   4.0125
     4.7917   7.4303   7.7953   8.1372   8.5601   8.7796  10.2728  10.5524
    11.9157  12.0967  12.8853  13.4585  14.1335  14.5566  15.0845  15.1084
    15.5196  16.2654  16.4442  16.9325  17.9963  18.4135  18.7242  20.0478

          k = 0.3667 0.2117 0.0000 (  7046 PWs)   bands (ev):

   -59.9719 -34.5975 -34.4218 -34.2853 -12.2510 -11.8764  -5.2791  -4.2402
    -3.6280  -2.6535  -1.3899  -0.7172  -0.6388   2.7843   2.9279   4.0897
     4.8293   7.5569   7.8788   7.9972   8.6497   8.8265  10.3338  10.5728
    11.8485  12.0921  12.6965  13.3569  13.9945  14.3158  15.1238  15.2689
    15.5714  16.3145  16.5586  17.0816  17.8916  18.4700  18.7671  19.8557

          k = 0.3833 0.2213 0.0000 (  7048 PWs)   bands (ev):

   -59.9701 -34.6149 -34.4183 -34.2892 -12.1571 -11.8417  -5.3591  -4.3343
    -3.6644  -2.7042  -1.4325  -0.6525  -0.5892   2.7926   3.0033   4.1567
     4.8615   7.5233   7.9427   7.9925   8.7745   8.9089  10.3894  10.5726
    11.7873  12.1070  12.5181  13.0464  14.0335  14.0497  15.0654  15.4480
    15.6178  16.3235  16.8419  17.1661  17.9158  18.5212  18.7692  19.7214

          k = 0.4000 0.2309 0.0000 (  7054 PWs)   bands (ev):

   -59.9687 -34.6305 -34.4150 -34.2929 -12.0711 -11.8102  -5.4338  -4.4183
    -3.7040  -2.7486  -1.4692  -0.5963  -0.5294   2.8051   3.0792   4.2129
     4.8885   7.3536   7.9947   8.1156   8.9255   9.0123  10.4244  10.5610
    11.7511  12.1278  12.3547  12.6896  13.8001  14.0496  15.0044  15.6171
    15.6188  16.4143  17.1074  17.2154  18.0359  18.5676  18.7423  19.6464

          k = 0.4167 0.2406 0.0000 (  7054 PWs)   bands (ev):

   -59.9671 -34.6440 -34.4121 -34.2959 -11.9948 -11.7826  -5.5011  -4.4912
    -3.7437  -2.7864  -1.4999  -0.5489  -0.4656   2.8202   3.1532   4.2585
     4.9106   7.1602   8.0413   8.2603   9.1019   9.1196  10.4275  10.5507
    11.7460  12.1351  12.2100  12.3466  13.5917  13.9585  15.0262  15.5699
    15.7715  16.5092  17.2736  17.3475  18.1874  18.6091  18.7198  19.6134

          k = 0.4333 0.2502 0.0000 (  7050 PWs)   bands (ev):

   -59.9656 -34.6550 -34.4097 -34.2985 -11.9296 -11.7592  -5.5591  -4.5522
    -3.7806  -2.8175  -1.5247  -0.5102  -0.4037   2.8359   3.2222   4.2938
     4.9282   6.9788   8.0856   8.3956   9.2152   9.3015  10.3998  10.5543
    11.7103  12.0867  12.0967  12.1094  13.4427  13.7754  15.1326  15.4878
    15.9060  16.5568  17.3483  17.5547  18.3286  18.6458  18.7343  19.6012

          k = 0.4500 0.2598 0.0000 (  7052 PWs)   bands (ev):

   -59.9647 -34.6639 -34.4076 -34.3006 -11.8771 -11.7405  -5.6060  -4.6004
    -3.8120  -2.8418  -1.5439  -0.4804  -0.3492   2.8505   3.2826   4.3198
     4.9416   6.8239   8.1267   8.5118   9.2878   9.5162  10.3575  10.5794
    11.4933  11.9878  12.0441  12.0883  13.3585  13.5513  15.2807  15.3952
    16.0163  16.5395  17.4257  17.7224  18.4401  18.6765  18.7932  19.5966

          k = 0.4667 0.2694 0.0000 (  7050 PWs)   bands (ev):

   -59.9639 -34.6702 -34.4062 -34.3020 -11.8386 -11.7269  -5.6406  -4.6354
    -3.8359  -2.8593  -1.5574  -0.4592  -0.3067   2.8623   3.3302   4.3374
     4.9510   6.7054   8.1614   8.6028   9.3337   9.7255  10.3315  10.6226
    11.1983  11.9156  11.9559  12.2071  13.3245  13.3254  15.3126  15.4354
    16.0982  16.4718  17.4903  17.8454  18.5175  18.7000  18.8752  19.5937

          k = 0.4833 0.2791 0.0000 (  7044 PWs)   bands (ev):

   -59.9631 -34.6738 -34.4055 -34.3028 -11.8151 -11.7187  -5.6618  -4.6565
    -3.8508  -2.8697  -1.5655  -0.4466  -0.2797   2.8699   3.3609   4.3476
     4.9566   6.6309   8.1848   8.6618   9.3567   9.8812  10.3688  10.6660
    10.9212  11.8716  11.8787  12.3432  13.1320  13.3190  15.2560  15.5626
    16.1486  16.3914  17.5321  17.9202  18.5629  18.7153  18.9451  19.5910

          k = 0.5000 0.2887 0.0000 (  7056 PWs)   bands (ev):

   -59.9637 -34.6752 -34.4052 -34.3034 -11.8072 -11.7159  -5.6690  -4.6636
    -3.8559  -2.8733  -1.5682  -0.4424  -0.2705   2.8725   3.3715   4.3510
     4.9584   6.6054   8.1931   8.6824   9.3634   9.9332  10.4395  10.6847
    10.7680  11.8477  11.8567  12.4117  13.0454  13.3193  15.2358  15.6153
    16.1655  16.3532  17.5463  17.9450  18.5779  18.7201  18.9723  19.5897

          k = 0.4944 0.2983 0.0000 (  7040 PWs)   bands (ev):

   -59.9626 -34.6749 -34.4051 -34.3034 -11.8065 -11.7154  -5.6670  -4.6652
    -3.8550  -2.8739  -1.5675  -0.4667  -0.2533   2.8731   3.3724   4.3545
     4.9506   6.6075   8.2045   8.6889   9.3642   9.9359  10.4416  10.6862
    10.7687  11.8425  11.8494  12.4160  13.0516  13.3200  15.2364  15.6156
    16.1517  16.3560  17.5470  17.9351  18.5185  18.7566  18.9804  19.5831

          k = 0.4889 0.3079 0.0000 (  7038 PWs)   bands (ev):

   -59.9625 -34.6744 -34.4049 -34.3045 -11.8044 -11.7141  -5.6612  -4.6700
    -3.8526  -2.8760  -1.5656  -0.5237  -0.2175   2.8745   3.3754   4.3649
     4.9273   6.6134   8.2382   8.7082   9.3667   9.9439  10.4477  10.6907
    10.7704  11.8019  11.8543  12.4278  13.0695  13.3222  15.2380  15.6160
    16.1111  16.3643  17.5483  17.9065  18.3988  18.8108  19.0020  19.5417

          k = 0.4833 0.3175 0.0000 (  7046 PWs)   bands (ev):

   -59.9629 -34.6736 -34.4049 -34.3065 -11.8008 -11.7118  -5.6516  -4.6780
    -3.8485  -2.8793  -1.5624  -0.5971  -0.1791   2.8764   3.3806   4.3821
     4.8899   6.6231   8.2931   8.7401   9.3708   9.9571  10.4579  10.6981
    10.7727  11.7404  11.8625  12.4444  13.0972  13.3256  15.2403  15.6155
    16.0467  16.3784  17.5486  17.8638  18.2527  18.8591  19.0278  19.4096

          k = 0.4778 0.3272 0.0000 (  7054 PWs)   bands (ev):

   -59.9633 -34.6724 -34.4046 -34.3094 -11.7959 -11.7086  -5.6382  -4.6891
    -3.8429  -2.8834  -1.5584  -0.6812  -0.1433   2.8786   3.3881   4.4056
     4.8403   6.6366   8.3676   8.7841   9.3765   9.9754  10.4722  10.7085
    10.7744  11.6649  11.8739  12.4638  13.1325  13.3304  15.2427  15.6126
    15.9628  16.3986  17.5455  17.8122  18.0908  18.8986  19.0131  19.2324

          k = 0.4722 0.3368 0.0000 (  7052 PWs)   bands (ev):

   -59.9630 -34.6707 -34.4044 -34.3127 -11.7896 -11.7046  -5.6210  -4.7033
    -3.8358  -2.8880  -1.5538  -0.7736  -0.1113   2.8802   3.3984   4.4348
     4.7807   6.6536   8.4598   8.8398   9.3839   9.9984  10.4906  10.7218
    10.7739  11.5822  11.8887  12.4847  13.1732  13.3363  15.2437  15.6054
    15.8651  16.4248  17.5356  17.7575  17.9208  18.8264  18.9247  19.1947

          k = 0.4667 0.3464 0.0000 (  7040 PWs)   bands (ev):

   -59.9621 -34.6686 -34.4039 -34.3165 -11.7819 -11.6997  -5.6001  -4.7206
    -3.8273  -2.8927  -1.5489  -0.8733  -0.0832   2.8807   3.4116   4.4679
     4.7148   6.6739   8.5676   8.9061   9.3928  10.0253  10.5133  10.7381
    10.7685  11.4996  11.9068  12.5068  13.2173  13.3432  15.2410  15.5923
    15.7597  16.4570  17.5103  17.7030  17.7542  18.5567  18.9276  19.2298

          k = 0.4611 0.3560 0.0000 (  7042 PWs)   bands (ev):

   -59.9620 -34.6663 -34.4035 -34.3213 -11.7731 -11.6941  -5.5755  -4.7409
    -3.8174  -2.8970  -1.5442  -0.9795  -0.0588   2.8793   3.4281   4.4989
     4.6503   6.6972   8.6888   8.9822   9.4034  10.0548  10.5399  10.7548
    10.7571  11.4248  11.9282  12.5298  13.2632  13.3508  15.2290  15.5720
    15.6553  16.4942  17.4389  17.6237  17.6504  18.2745  18.8922  19.2670

          k = 0.4556 0.3657 0.0000 (  7036 PWs)   bands (ev):

   -59.9614 -34.6636 -34.4031 -34.3265 -11.7630 -11.6877  -5.5473  -4.7640
    -3.8063  -2.9005  -1.5399  -1.0915  -0.0375   2.8753   3.4482   4.4979
     4.6184   6.7234   8.8216   9.0668   9.4156  10.0843  10.5700  10.7307
    10.7789  11.3663  11.9530  12.5540  13.3101  13.3590  15.1978  15.5437
    15.5644  16.5355  17.2923  17.5599  17.5975  17.9967  18.8057  19.2123

          k = 0.4500 0.3753 0.0000 (  7036 PWs)   bands (ev):

   -59.9612 -34.6606 -34.4026 -34.3325 -11.7519 -11.6806  -5.5155  -4.7899
    -3.7942  -2.9028  -1.5366  -1.2085  -0.0188   2.8682   3.4721   4.4391
     4.6462   6.7522   8.9640   9.1584   9.4295  10.1086  10.6002  10.7004
    10.8035  11.3302  11.9813  12.5792  13.3572  13.3673  15.1348  15.5017
    15.5073  16.5787  17.1127  17.5205  17.5224  17.7527  18.6687  18.9918

          k = 0.4444 0.3849 0.0000 (  7032 PWs)   bands (ev):

   -59.9606 -34.6572 -34.4021 -34.3390 -11.7397 -11.6729  -5.4803  -4.8182
    -3.7812  -2.9035  -1.5346  -1.3298  -0.0019   2.8574   3.4996   4.3603
     4.6967   6.7836   9.1144   9.2554   9.4454  10.1184  10.6139  10.6905
    10.8307  11.3185  12.0129  12.6055  13.3752  13.4043  15.0389  15.4631
    15.4700  16.6205  16.9249  17.3398  17.4870  17.6265  18.4969  18.7411

          k = 0.4389 0.3945 0.0000 (  7038 PWs)   bands (ev):

   -59.9607 -34.6537 -34.4016 -34.3461 -11.7267 -11.6646  -5.4418  -4.8487
    -3.7674  -2.9023  -1.5342  -1.4548   0.0137   2.8428   3.5307   4.2772
     4.7552   6.8174   9.2701   9.3559   9.4643  10.1003  10.6057  10.7239
    10.8605  11.3287  12.0479  12.6327  13.3822  13.4512  14.9220  15.4121
    15.4582  16.6515  16.7361  17.0960  17.4469  17.5864  18.3082  18.4864

          k = 0.4333 0.4041 0.0000 (  7044 PWs)   bands (ev):

   -59.9608 -34.6497 -34.4012 -34.3537 -11.7128 -11.6559  -5.4000  -4.8812
    -3.7532  -2.8989  -1.5827  -1.5357   0.0286   2.8242   3.5652   4.1935
     4.8181   6.8535   9.4196   9.4574   9.4968  10.0459  10.6134  10.7770
    10.8928  11.3576  12.0863  12.6606  13.3874  13.4978  14.7958  15.3551
    15.4545  16.5504  16.6244  16.8969  17.3976  17.5701  18.1175  18.2328

          k = 0.4278 0.4138 0.0000 (  7052 PWs)   bands (ev):

   -59.9610 -34.6455 -34.4006 -34.3620 -11.6982 -11.6467  -5.3551  -4.9154
    -3.7386  -2.8932  -1.7126  -1.5393   0.0433   2.8017   3.6026   4.1112
     4.8838   6.8919   9.4851   9.5560   9.6194   9.9614  10.6459  10.8413
    10.9276  11.4021  12.1280  12.6888  13.3898  13.5442  14.6681  15.2935
    15.4499  16.3721  16.4429  16.8506  17.3326  17.5621  17.9385  17.9846

          k = 0.4222 0.4234 0.0000 (  7042 PWs)   bands (ev):

   -59.9600 -34.6408 -34.3999 -34.3703 -11.6830 -11.6372  -5.3071  -4.9507
    -3.7240  -2.8851  -1.8439  -1.5453   0.0585   2.7755   3.6426   4.0314
     4.9515   6.9327   9.5106   9.6382   9.7872   9.8704  10.6959  10.9153
    10.9647  11.4610  12.1729  12.7169  13.3880  13.5904  14.5440  15.2283
    15.4352  16.1916  16.2077  16.8754  17.2431  17.5446  17.7571  17.7853

          k = 0.4167 0.4330 0.0000 (  7054 PWs)   bands (ev):

   -59.9604 -34.6362 -34.3994 -34.3794 -11.6674 -11.6274  -5.2562  -4.9869
    -3.7096  -2.8746  -1.9758  -1.5538   0.0745   2.7458   3.6847   3.9548
     5.0200   6.9755   9.5338   9.6380   9.8468   9.9614  10.7557  10.9977
    11.0040  11.5335  12.2207  12.7443  13.3801  13.6364  14.4276  15.1600
    15.3986  15.9309  16.0673  16.9111  17.1225  17.4274  17.6399  17.6683

          k = 0.4111 0.4426 0.0000 (  7058 PWs)   bands (ev):

   -59.9604 -34.6311 -34.3988 -34.3887 -11.6515 -11.6176  -5.2027  -5.0236
    -3.6959  -2.8616  -2.1073  -1.5648   0.0916   2.7129   3.7283   3.8821
     5.0887   7.0204   9.5338   9.5576   9.9180  10.1386  10.8209  11.0455
    11.0866  11.6199  12.2710  12.7703  13.3642  13.6826  14.3229  15.0875
    15.3267  15.6741  15.9619  16.9403  16.9755  17.2175  17.5869  17.6314

          k = 0.4056 0.4523 0.0000 (  7064 PWs)   bands (ev):

   -59.9604 -34.6257 -34.3982 -34.3982 -11.6355 -11.6076  -5.1465  -5.0602
    -3.6831  -2.8463  -2.2377  -1.5784   0.1101   2.6772   3.7731   3.8140
     5.1565   7.0675   9.4021   9.5823  10.0109  10.3173  10.8893  11.0891
    11.1789  11.7202  12.3231  12.7941  13.3383  13.7292  14.2334  15.0059
    15.2145  15.4307  15.8935  16.8164  16.8972  17.0665  17.5316  17.6420

          k = 0.4000 0.4619 0.0000 (  7052 PWs)   bands (ev):

   -59.9593 -34.6201 -34.4077 -34.3973 -11.6195 -11.5978  -5.0964  -5.0880
    -3.6720  -2.8287  -2.3658  -1.5944   0.1301   2.6393   3.7507   3.8184
     5.2227   7.1167   9.2635   9.6081  10.1074  10.4964  10.9602  11.1348
    11.2721  11.8342  12.3757  12.8150  13.3019  13.7768  14.1622  14.8985
    15.0705  15.2200  15.8483  16.6613  16.7021  17.0666  17.4935  17.6566

          k = 0.3944 0.4715 0.0000 (  7054 PWs)   bands (ev):

   -59.9591 -34.6143 -34.4176 -34.3966 -11.6036 -11.5881  -5.1318  -5.0273
    -3.6630  -2.8092  -2.4907  -1.6129   0.1517   2.5995   3.6926   3.8637
     5.2864   7.1679   9.1230   9.6349  10.2041  10.6747  11.0335  11.1827
    11.3642  11.9598  12.4267  12.8321  13.2566  13.8255  14.1100  14.7370
    14.9074  15.0721  15.8042  16.4796  16.5263  17.0949  17.4672  17.6720

          k = 0.3889 0.4811 0.0000 (  7046 PWs)   bands (ev):

   -59.9582 -34.6083 -34.4272 -34.3959 -11.5881 -11.5787  -5.1659  -4.9647
    -3.6571  -2.7880  -2.6108  -1.6335   0.1748   2.5586   3.6399   3.9086
     5.3471   7.2210   8.9834   9.6627  10.3001  10.8505  11.1091  11.2331
    11.4540  12.0938  12.4725  12.8453  13.2076  13.8757  14.0758  14.5280
    14.7351  14.9819  15.7396  16.2582  16.4275  17.1231  17.4501  17.6874

          k = 0.3833 0.4907 0.0000 (  7042 PWs)   bands (ev):

   -59.9577 -34.6021 -34.4369 -34.3953 -11.5732 -11.5697  -5.1983  -4.9005
    -3.6553  -2.7655  -2.7246  -1.6559   0.1992   2.5171   3.5927   3.9524
     5.4037   7.2759   8.8459   9.6912  10.3949  11.0211  11.1871  11.2874
    11.5415  12.2309  12.5074  12.8553  13.1635  13.9265  14.0568  14.3039
    14.5598  14.9200  15.6422  16.0424  16.3741  17.1462  17.4405  17.7028

          k = 0.3778 0.5004 0.0000 (  7038 PWs)   bands (ev):

   -59.9571 -34.5957 -34.4466 -34.3947 -11.5613 -11.5589  -5.2286  -4.8350
    -3.6592  -2.8299  -2.7421  -1.6798   0.2244   2.4759   3.5512   3.9946
     5.4559   7.3324   8.7120   9.7201  10.4883  11.1793  11.2677  11.3515
    11.6265  12.3636  12.5239  12.8647  13.1352  13.9590  14.0489  14.0999
    14.3865  14.8710  15.5154  15.8344  16.3615  17.1615  17.4378  17.7194

          k = 0.3722 0.5100 0.0000 (  7057 PWs)   bands (ev):

   -59.9580 -34.5895 -34.4565 -34.3944 -11.5534 -11.5456  -5.2566  -4.7689
    -3.6704  -2.9243  -2.7182  -1.7045   0.2500   2.4358   3.5152   4.0345
     5.5028   7.3903   8.5824   9.7491  10.5797  11.3041  11.3507  11.4441
    11.7090  12.4794  12.5160  12.8811  13.1310  13.8196  14.0463  14.0772
    14.2212  14.8289  15.3712  15.6361  16.3770  17.1676  17.4413  17.7384

          k = 0.3667 0.5196 0.0000 (  7055 PWs)   bands (ev):

   -59.9577 -34.5831 -34.4658 -34.3938 -11.5463 -11.5335  -5.2817  -4.7027
    -3.6907  -3.0052  -2.6945  -1.7293   0.2752   2.3978   3.4847   4.0714
     5.5441   7.4494   8.4588   9.7776  10.6683  11.3831  11.4360  11.5758
    11.7885  12.4842  12.5596  12.9181  13.1513  13.6109  14.0182  14.0965
    14.1388  14.7902  15.2210  15.4496  16.4096  17.1650  17.4506  17.7607

          k = 0.3611 0.5292 0.0000 (  7049 PWs)   bands (ev):

   -59.9571 -34.5769 -34.4746 -34.3932 -11.5400 -11.5226  -5.3036  -4.6374
    -3.7209  -3.0704  -2.6718  -1.7534   0.2993   2.3628   3.4597   4.1047
     5.5793   7.5094   8.3422   9.8049  10.7528  11.4401  11.5233  11.7190
    11.8641  12.4362  12.5892  12.9833  13.1863  13.4122  13.9016  14.0786
    14.2122  14.7524  15.0737  15.2771  16.4518  17.1553  17.4648  17.7863

          k = 0.3556 0.5389 0.0000 (  7041 PWs)   bands (ev):

   -59.9564 -34.5708 -34.4826 -34.3927 -11.5347 -11.5133  -5.3221  -4.5745
    -3.7600  -3.1192  -2.6508  -1.7759   0.3213   2.3320   3.4399   4.1337
     5.6083   7.5697   8.2339   9.8300  10.8312  11.4882  11.6120  11.8568
    11.9342  12.3811  12.5736  13.0552  13.2191  13.2445  13.7948  14.0779
    14.2925  14.7140  14.9372  15.1208  16.4978  17.1418  17.4827  17.8136

          k = 0.3500 0.5485 0.0000 (  7031 PWs)   bands (ev):

   -59.9556 -34.5652 -34.4897 -34.3924 -11.5304 -11.5057  -5.3369  -4.5167
    -3.8042  -3.1527  -2.6327  -1.7955   0.3402   2.3064   3.4250   4.1575
     5.6307   7.6290   8.1361   9.8519  10.9008  11.5293  11.7011  11.9808
    11.9959  12.3266  12.5231  13.0384  13.1959  13.2287  13.7370  14.0681
    14.3779  14.6756  14.8207  14.9824  16.5429  17.1281  17.5018  17.8400

          k = 0.3444 0.5581 0.0000 (  7027 PWs)   bands (ev):

   -59.9552 -34.5607 -34.4954 -34.3921 -11.5272 -11.5000  -5.3477  -4.4678
    -3.8468  -3.1734  -2.6185  -1.8109   0.3548   2.2871   3.4148   4.1753
     5.6465   7.6845   8.0521   9.8692  10.9575  11.5623  11.7887  12.0436
    12.0831  12.2788  12.4460  12.9520  13.2068  13.2460  13.7407  14.0392
    14.4665  14.6408  14.7341  14.8618  16.5819  17.1172  17.5181  17.8624

          k = 0.3389 0.5677 0.0000 (  7047 PWs)   bands (ev):

   -59.9564 -34.5578 -34.4997 -34.3922 -11.5253 -11.4964  -5.3544  -4.4340
    -3.8789  -3.1840  -2.6094  -1.8210   0.3642   2.2750   3.4089   4.1865
     5.6558   7.7292   7.9896   9.8805  10.9962  11.5844  11.8691  12.0642
    12.1538  12.2432  12.3674  12.8999  13.1745  13.2852  13.7886  13.9881
    14.5519  14.6202  14.6843  14.7564  16.6091  17.1110  17.5264  17.8782

          k = 0.3333 0.5774 0.0000 (  7047 PWs)   bands (ev):

   -59.9564 -34.5567 -34.5010 -34.3921 -11.5246 -11.4952  -5.3566  -4.4216
    -3.8911  -3.1871  -2.6061  -1.8246   0.3675   2.2708   3.4070   4.1903
     5.6589   7.7478   7.9650   9.8845  11.0105  11.5926  11.9146  12.0546
    12.1795  12.2293  12.3349  12.8846  13.1598  13.2987  13.8316  13.9454
    14.5867  14.6584  14.6696  14.6703  16.6190  17.1093  17.5271  17.8568

          k = 0.3222 0.5581 0.0000 (  7041 PWs)   bands (ev):

   -59.9561 -34.5604 -34.4960 -34.3923 -11.5274 -11.5005  -5.3473  -4.4669
    -3.8432  -3.1776  -2.6195  -1.8095   0.3535   2.2876   3.4137   4.1740
     5.6474   7.7012   8.0365   9.8662  10.9443  11.5532  11.7411  12.1360
    12.1592  12.2436  12.4163  12.9268  13.2131  13.2552  13.6935  14.0935
[...]
    10.8539  11.7931  11.8568  12.3692  12.9821  13.5274  14.9869  15.7744
    16.1659  16.3456  17.6147  17.9453  18.4730  18.7203  19.0237  19.3629

          k = 0.5000 0.2887 0.0229 (  7036 PWs)   bands (ev):

   -59.9624 -34.6751 -34.4050 -34.3030 -11.8072 -11.7159  -5.6690  -4.6636
    -3.8558  -2.8732  -1.5682  -0.4423  -0.2705   2.8726   3.3715   4.3510
     4.9584   6.6055   8.1931   8.6833   9.3587   9.9457  10.3917  10.6874
    10.8357  11.8044  11.8568  12.3822  12.9842  13.4901  15.0301  15.7574
    16.1659  16.3401  17.6007  17.9452  18.4945  18.7203  19.0214  19.3803

          k = 0.5000 0.2887 0.0196 (  7040 PWs)   bands (ev):

   -59.9627 -34.6751 -34.4051 -34.3031 -11.8072 -11.7159  -5.6690  -4.6636
    -3.8558  -2.8732  -1.5682  -0.4423  -0.2705   2.8726   3.3715   4.3510
     4.9584   6.6054   8.1931   8.6830   9.3599   9.9424  10.4025  10.6873
    10.8191  11.8148  11.8568  12.3923  12.9901  13.4540  15.0724  15.7355
    16.1657  16.3387  17.5877  17.9452  18.5143  18.7203  19.0147  19.4048

          k = 0.5000 0.2887 0.0163 (  7046 PWs)   bands (ev):

   -59.9630 -34.6751 -34.4051 -34.3032 -11.8072 -11.7159  -5.6690  -4.6636
    -3.8558  -2.8732  -1.5682  -0.4424  -0.2705   2.8726   3.3715   4.3510
     4.9584   6.6054   8.1931   8.6829   9.3609   9.9397  10.4126  10.6870
    10.8043  11.8243  11.8567  12.3998  12.9993  13.4198  15.1129  15.7101
    16.1656  16.3403  17.5759  17.9451  18.5321  18.7203  19.0055  19.4345

          k = 0.5000 0.2887 0.0131 (  7044 PWs)   bands (ev):

   -59.9629 -34.6751 -34.4051 -34.3032 -11.8072 -11.7159  -5.6690  -4.6636
    -3.8559  -2.8732  -1.5682  -0.4424  -0.2705   2.8726   3.3715   4.3510
     4.9584   6.6054   8.1931   8.6827   9.3618   9.9374  10.4215  10.6865
    10.7917  11.8324  11.8568  12.4049  13.0107  13.3883  15.1508  15.6835
    16.1656  16.3434  17.5657  17.9451  18.5477  18.7204  18.9956  19.4679

          k = 0.5000 0.2887 0.0098 (  7044 PWs)   bands (ev):

   -59.9629 -34.6751 -34.4050 -34.3033 -11.8072 -11.7159  -5.6690  -4.6636
    -3.8559  -2.8732  -1.5682  -0.4424  -0.2705   2.8726   3.3715   4.3510
     4.9584   6.6055   8.1931   8.6826   9.3625   9.9356  10.4290  10.6859
    10.7815  11.8389  11.8568  12.4083  13.0230  13.3608  15.1843  15.6578
    16.1656  16.3471  17.5575  17.9451  18.5604  18.7202  18.9864  19.5033

          k = 0.5000 0.2887 0.0065 (  7048 PWs)   bands (ev):

   -59.9632 -34.6752 -34.4051 -34.3033 -11.8072 -11.7159  -5.6690  -4.6636
    -3.8559  -2.8732  -1.5682  -0.4424  -0.2705   2.8726   3.3715   4.3510
     4.9584   6.6054   8.1931   8.6825   9.3630   9.9343  10.4347  10.6853
    10.7741  11.8438  11.8568  12.4103  13.0343  13.3389  15.2115  15.6358
    16.1656  16.3503  17.5514  17.9450  18.5700  18.7202  18.9789  19.5393

          k = 0.5000 0.2887 0.0033 (  7056 PWs)   bands (ev):

   -59.9637 -34.6752 -34.4052 -34.3034 -11.8072 -11.7159  -5.6690  -4.6636
    -3.8559  -2.8733  -1.5682  -0.4424  -0.2705   2.8725   3.3715   4.3510
     4.9584   6.6054   8.1931   8.6824   9.3633   9.9334  10.4383  10.6849
    10.7696  11.8467  11.8567  12.4114  13.0424  13.3244  15.2295  15.6207
    16.1655  16.3524  17.5476  17.9450  18.5759  18.7201  18.9740  19.5724

          k = 0.5000 0.2887 0.0000 (  7056 PWs)   bands (ev):

   -59.9637 -34.6752 -34.4052 -34.3034 -11.8072 -11.7159  -5.6690  -4.6636
    -3.8559  -2.8733  -1.5682  -0.4424  -0.2705   2.8725   3.3715   4.3510
     4.9584   6.6054   8.1931   8.6824   9.3634   9.9332  10.4395  10.6847
    10.7680  11.8477  11.8567  12.4117  13.0454  13.3193  15.2358  15.6153
    16.1655  16.3532  17.5463  17.9450  18.5779  18.7201  18.9723  19.5897

          k = 0.3333 0.5774 0.0980 (  7050 PWs)   bands (ev):

   -59.9566 -34.5565 -34.5008 -34.3927 -11.5246 -11.4952  -5.3566  -4.4216
    -3.8911  -3.1871  -2.6061  -1.8246   0.3675   2.2708   3.4071   4.1904
     5.6588   7.7479   7.9651   9.8802  11.0387  11.4822  11.8655  12.1788
    12.2282  12.2283  12.6344  12.6387  13.2250  13.3326  13.6494  13.7029
    13.8490  14.8656  15.6152  15.6634  16.0393  16.3233  16.3872  18.7302

          k = 0.3333 0.5774 0.0947 (  7059 PWs)   bands (ev):

   -59.9572 -34.5566 -34.5009 -34.3928 -11.5246 -11.4952  -5.3566  -4.4217
    -3.8911  -3.1871  -2.6061  -1.8247   0.3675   2.2708   3.4070   4.1903
     5.6588   7.7479   7.9650   9.8802  11.0386  11.4824  11.8660  12.1788
    12.2271  12.2274  12.6357  12.6398  13.2118  13.3461  13.6489  13.7033
    13.8488  14.8647  15.5839  15.6951  16.0408  16.2879  16.4226  18.7273

          k = 0.3333 0.5774 0.0914 (  7059 PWs)   bands (ev):

   -59.9572 -34.5566 -34.5009 -34.3928 -11.5246 -11.4952  -5.3566  -4.4217
    -3.8911  -3.1871  -2.6061  -1.8247   0.3675   2.2708   3.4070   4.1903
     5.6588   7.7479   7.9650   9.8802  11.0384  11.4830  11.8675  12.1788
    12.2237  12.2250  12.6396  12.6430  13.1829  13.3764  13.6476  13.7044
    13.8486  14.8624  15.5372  15.7432  16.0453  16.2326  16.4782  18.7184

          k = 0.3333 0.5774 0.0882 (  7059 PWs)   bands (ev):

   -59.9572 -34.5566 -34.5009 -34.3928 -11.5246 -11.4952  -5.3566  -4.4217
    -3.8911  -3.1871  -2.6061  -1.8247   0.3675   2.2708   3.4070   4.1903
     5.6588   7.7479   7.9650   9.8803  11.0379  11.4841  11.8701  12.1787
    12.2182  12.2212  12.6459  12.6483  13.1487  13.4128  13.6454  13.7064
    13.8483  14.8586  15.4893  15.7934  16.0527  16.1750  16.5363  18.7042

          k = 0.3333 0.5774 0.0849 (  7059 PWs)   bands (ev):

   -59.9572 -34.5566 -34.5009 -34.3928 -11.5246 -11.4952  -5.3566  -4.4217
    -3.8911  -3.1871  -2.6061  -1.8247   0.3675   2.2708   3.4070   4.1903
     5.6588   7.7479   7.9650   9.8804  11.0374  11.4856  11.8737  12.1785
    12.2108  12.2160  12.6545  12.6554  13.1127  13.4519  13.6422  13.7092
    13.8478  14.8534  15.4414  15.8444  16.0629  16.1169  16.5951  18.6843

          k = 0.3333 0.5774 0.0816 (  7065 PWs)   bands (ev):

   -59.9575 -34.5567 -34.5010 -34.3928 -11.5246 -11.4952  -5.3566  -4.4217
    -3.8911  -3.1871  -2.6062  -1.8247   0.3675   2.2708   3.4070   4.1903
     5.6588   7.7479   7.9650   9.8805  11.0366  11.4874  11.8783  12.1780
    12.2018  12.2098  12.6640  12.6653  13.0762  13.4924  13.6381  13.7127
    13.8471  14.8468  15.3939  15.8960  16.0586  16.0758  16.6542  18.6611

          k = 0.3333 0.5774 0.0784 (  7065 PWs)   bands (ev):

   -59.9575 -34.5567 -34.5010 -34.3928 -11.5246 -11.4952  -5.3566  -4.4217
    -3.8911  -3.1871  -2.6062  -1.8247   0.3675   2.2708   3.4070   4.1903
     5.6588   7.7479   7.9650   9.8806  11.0357  11.4897  11.8840  12.1769
    12.1921  12.2026  12.6740  12.6779  13.0396  13.5338  13.6331  13.7170
    13.8464  14.8392  15.3468  15.9481  16.0003  16.0913  16.7134  18.6323

          k = 0.3333 0.5774 0.0751 (  7068 PWs)   bands (ev):

   -59.9577 -34.5567 -34.5010 -34.3929 -11.5246 -11.4952  -5.3566  -4.4217
    -3.8911  -3.1871  -2.6062  -1.8247   0.3675   2.2708   3.4070   4.1903
     5.6588   7.7479   7.9650   9.8807  11.0347  11.4924  11.8906  12.1727
    12.1842  12.1946  12.6850  12.6923  13.0031  13.5760  13.6272  13.7222
    13.8456  14.8306  15.3003  15.9422  16.0005  16.1091  16.7726  18.6004

          k = 0.3333 0.5774 0.0718 (  7068 PWs)   bands (ev):

   -59.9577 -34.5567 -34.5010 -34.3929 -11.5246 -11.4952  -5.3566  -4.4217
    -3.8911  -3.1871  -2.6062  -1.8247   0.3675   2.2708   3.4070   4.1903
     5.6588   7.7479   7.9650   9.8809  11.0336  11.4955  11.8982  12.1625
    12.1813  12.1861  12.6968  12.7082  12.9670  13.6188  13.6203  13.7281
    13.8448  14.8211  15.2544  15.8841  16.0533  16.1290  16.8319  18.5606

          k = 0.3333 0.5774 0.0686 (  7059 PWs)   bands (ev):

   -59.9572 -34.5566 -34.5009 -34.3928 -11.5246 -11.4952  -5.3566  -4.4216
    -3.8911  -3.1871  -2.6062  -1.8246   0.3675   2.2708   3.4070   4.1903
     5.6588   7.7479   7.9650   9.8811  11.0324  11.4990  11.9067  12.1494
    12.1772  12.1805  12.7092  12.7254  12.9311  13.6125  13.6622  13.7348
    13.8439  14.8111  15.2093  15.8263  16.1065  16.1509  16.8910  18.5160

          k = 0.3333 0.5774 0.0653 (  7059 PWs)   bands (ev):

   -59.9572 -34.5566 -34.5009 -34.3928 -11.5246 -11.4952  -5.3566  -4.4216
    -3.8911  -3.1871  -2.6062  -1.8246   0.3675   2.2708   3.4070   4.1903
     5.6588   7.7479   7.9650   9.8813  11.0311  11.5028  11.9162  12.1353
    12.1681  12.1801  12.7219  12.7438  12.8957  13.6036  13.7060  13.7423
    13.8430  14.8006  15.1647  15.7686  16.1598  16.1745  16.9501  18.4681

          k = 0.3333 0.5774 0.0620 (  7059 PWs)   bands (ev):

   -59.9572 -34.5566 -34.5009 -34.3928 -11.5246 -11.4952  -5.3566  -4.4216
    -3.8911  -3.1871  -2.6061  -1.8246   0.3675   2.2708   3.4070   4.1903
     5.6588   7.7479   7.9650   9.8815  11.0298  11.5070  11.9266  12.1206
    12.1589  12.1800  12.7349  12.7633  12.8606  13.5938  13.7504  13.7506
    13.8420  14.7897  15.1210  15.7112  16.1996  16.2135  17.0089  18.4192

          k = 0.3333 0.5774 0.0588 (  7065 PWs)   bands (ev):

   -59.9576 -34.5566 -34.5009 -34.3930 -11.5246 -11.4952  -5.3566  -4.4216
    -3.8911  -3.1871  -2.6062  -1.8247   0.3675   2.2708   3.4070   4.1903
     5.6588   7.7479   7.9649   9.8817  11.0283  11.5115  11.9379  12.1055
    12.1497  12.1799  12.7479  12.7836  12.8260  13.5829  13.7597  13.7952
    13.8410  14.7787  15.0780  15.6539  16.2260  16.2673  17.0675  18.3688

          k = 0.3333 0.5774 0.0555 (  7080 PWs)   bands (ev):

   -59.9585 -34.5568 -34.5011 -34.3932 -11.5246 -11.4952  -5.3567  -4.4217
    -3.8912  -3.1871  -2.6062  -1.8247   0.3675   2.2708   3.4070   4.1903
     5.6588   7.7478   7.9648   9.8819  11.0268  11.5162  11.9501  12.0902
    12.1407  12.1797  12.7607  12.7919  12.8047  13.5711  13.7695  13.8399
    13.8404  14.7676  15.0359  15.5969  16.2534  16.3214  17.1258  18.3169

          k = 0.3333 0.5774 0.0522 (  7068 PWs)   bands (ev):

   -59.9577 -34.5567 -34.5010 -34.3930 -11.5246 -11.4952  -5.3566  -4.4217
    -3.8911  -3.1871  -2.6062  -1.8247   0.3675   2.2708   3.4070   4.1903
     5.6588   7.7478   7.9649   9.8821  11.0253  11.5213  11.9631  12.0749
    12.1318  12.1797  12.7582  12.7733  12.8265  13.5583  13.7801  13.8390
    13.8861  14.7567  14.9947  15.5401  16.2816  16.3757  17.1838  18.2643

          k = 0.3333 0.5774 0.0490 (  7068 PWs)   bands (ev):

   -59.9577 -34.5567 -34.5010 -34.3930 -11.5246 -11.4952  -5.3566  -4.4217
    -3.8911  -3.1871  -2.6062  -1.8247   0.3675   2.2708   3.4070   4.1903
     5.6588   7.7478   7.9649   9.8824  11.0239  11.5266  11.9770  12.0597
    12.1232  12.1797  12.7251  12.7856  12.8489  13.5446  13.7913  13.8381
    13.9322  14.7460  14.9546  15.4836  16.3105  16.4300  17.2412  18.2110

          k = 0.3333 0.5774 0.0457 (  7062 PWs)   bands (ev):

   -59.9574 -34.5566 -34.5009 -34.3929 -11.5246 -11.4952  -5.3566  -4.4217
    -3.8911  -3.1871  -2.6061  -1.8246   0.3675   2.2708   3.4070   4.1903
     5.6588   7.7478   7.9649   9.8826  11.0224  11.5322  11.9916  12.0446
    12.1150  12.1797  12.6924  12.7974  12.8718  13.5300  13.8031  13.8373
    13.9787  14.7356  14.9156  15.4273  16.3397  16.4844  17.2982  18.1571

          k = 0.3333 0.5774 0.0424 (  7068 PWs)   bands (ev):

   -59.9577 -34.5567 -34.5010 -34.3929 -11.5246 -11.4952  -5.3566  -4.4217
    -3.8911  -3.1871  -2.6062  -1.8246   0.3675   2.2708   3.4070   4.1903
     5.6588   7.7478   7.9648   9.8828  11.0210  11.5378  12.0071  12.0299
    12.1072  12.1795  12.6603  12.8087  12.8950  13.5144  13.8154  13.8364
    14.0256  14.7257  14.8778  15.3713  16.3690  16.5389  17.3544  18.1028

          k = 0.3333 0.5774 0.0392 (  7068 PWs)   bands (ev):

   -59.9577 -34.5567 -34.5010 -34.3929 -11.5246 -11.4952  -5.3566  -4.4217
    -3.8911  -3.1871  -2.6062  -1.8246   0.3675   2.2708   3.4070   4.1903
     5.6588   7.7477   7.9648   9.8830  11.0196  11.5436  12.0156  12.0232
    12.0997  12.1795  12.6287  12.8194  12.9187  13.4979  13.8283  13.8357
    14.0729  14.7162  14.8414  15.3155  16.3981  16.5932  17.4097  18.0483

          k = 0.3333 0.5774 0.0359 (  7068 PWs)   bands (ev):

   -59.9577 -34.5567 -34.5010 -34.3929 -11.5246 -11.4952  -5.3566  -4.4217
    -3.8911  -3.1871  -2.6062  -1.8246   0.3675   2.2708   3.4070   4.1903
     5.6588   7.7477   7.9648   9.8833  11.0182  11.5495  12.0017  12.0401
    12.0928  12.1795  12.5976  12.8294  12.9425  13.4807  13.8350  13.8414
    14.1206  14.7074  14.8064  15.2601  16.4268  16.6475  17.4641  17.9937

          k = 0.3333 0.5774 0.0327 (  7065 PWs)   bands (ev):

   -59.9576 -34.5567 -34.5010 -34.3928 -11.5246 -11.4952  -5.3566  -4.4217
    -3.8911  -3.1871  -2.6062  -1.8246   0.3675   2.2708   3.4070   4.1903
     5.6588   7.7477   7.9648   9.8835  11.0170  11.5553  11.9885  12.0577
    12.0864  12.1795  12.5672  12.8387  12.9666  13.4628  13.8344  13.8547
    14.1687  14.6991  14.7731  15.2049  16.4548  16.7015  17.5172  17.9392

          k = 0.3333 0.5774 0.0294 (  7062 PWs)   bands (ev):

   -59.9574 -34.5567 -34.5010 -34.3927 -11.5246 -11.4952  -5.3566  -4.4217
    -3.8911  -3.1871  -2.6062  -1.8246   0.3675   2.2708   3.4070   4.1903
     5.6589   7.7477   7.9649   9.8836  11.0158  11.5611  11.9759  12.0759
    12.0805  12.1795  12.5374  12.8472  12.9907  13.4443  13.8339  13.8681
    14.2172  14.6916  14.7417  15.1500  16.4817  16.7551  17.5687  17.8851

          k = 0.3333 0.5774 0.0261 (  7056 PWs)   bands (ev):

   -59.9570 -34.5567 -34.5010 -34.3926 -11.5246 -11.4952  -5.3566  -4.4216
    -3.8911  -3.1871  -2.6061  -1.8246   0.3675   2.2708   3.4070   4.1903
     5.6589   7.7478   7.9650   9.8838  11.0147  11.5667  11.9642  12.0751
    12.0947  12.1795  12.5082  12.8549  13.0147  13.4252  13.8334  13.8812
    14.2660  14.6847  14.7123  15.0954  16.5073  16.8080  17.6183  17.8315

          k = 0.3333 0.5774 0.0229 (  7044 PWs)   bands (ev):

   -59.9562 -34.5566 -34.5009 -34.3922 -11.5246 -11.4952  -5.3566  -4.4216
    -3.8911  -3.1870  -2.6061  -1.8246   0.3675   2.2708   3.4070   4.1903
     5.6589   7.7478   7.9650   9.8840  11.0138  11.5720  11.9534  12.0704
    12.1140  12.1795  12.4799  12.8618  13.0386  13.4058  13.8331  13.8940
    14.3153  14.6786  14.6852  15.0412  16.5312  16.8601  17.6656  17.7789

          k = 0.3333 0.5774 0.0196 (  7038 PWs)   bands (ev):

   -59.9558 -34.5566 -34.5009 -34.3920 -11.5246 -11.4952  -5.3566  -4.4216
    -3.8911  -3.1870  -2.6061  -1.8246   0.3675   2.2708   3.4071   4.1904
     5.6589   7.7478   7.9651   9.8842  11.0130  11.5769  11.9437  12.0662
    12.1337  12.1795  12.4523  12.8678  13.0620  13.3861  13.8327  13.9060
    14.3649  14.6608  14.6733  14.9872  16.5529  16.9107  17.7097  17.7276

          k = 0.3333 0.5774 0.0163 (  7044 PWs)   bands (ev):

   -59.9562 -34.5567 -34.5010 -34.3921 -11.5246 -11.4952  -5.3566  -4.4216
    -3.8911  -3.1871  -2.6061  -1.8246   0.3675   2.2708   3.4070   4.1903
     5.6589   7.7478   7.9650   9.8843  11.0122  11.5814  11.9352  12.0627
    12.1537  12.1795  12.4257  12.8729  13.0849  13.3664  13.8324  13.9169
    14.4148  14.6392  14.6688  14.9336  16.5721  16.9593  17.6785  17.7501

          k = 0.3333 0.5774 0.0131 (  7044 PWs)   bands (ev):

   -59.9562 -34.5567 -34.5010 -34.3921 -11.5246 -11.4952  -5.3566  -4.4216
    -3.8911  -3.1871  -2.6061  -1.8246   0.3675   2.2708   3.4070   4.1903
     5.6589   7.7478   7.9650   9.8844  11.0116  11.5852  11.9280  12.0598
    12.1736  12.1795  12.4003  12.8771  13.1066  13.3473  13.8321  13.9266
    14.4651  14.6209  14.6650  14.8802  16.5884  17.0048  17.6325  17.7857

          k = 0.3333 0.5774 0.0098 (  7044 PWs)   bands (ev):

   -59.9562 -34.5567 -34.5010 -34.3921 -11.5246 -11.4952  -5.3566  -4.4216
    -3.8911  -3.1871  -2.6061  -1.8246   0.3675   2.2708   3.4070   4.1903
     5.6589   7.7478   7.9650   9.8845  11.0111  11.5884  11.9223  12.0575
    12.1795  12.1929  12.3768  12.8804  13.1265  13.3294  13.8319  13.9345
    14.5158  14.6063  14.6621  14.8271  16.6016  17.0455  17.5915  17.8154

          k = 0.3333 0.5774 0.0065 (  7047 PWs)   bands (ev):

   -59.9564 -34.5567 -34.5010 -34.3921 -11.5246 -11.4952  -5.3566  -4.4216
    -3.8911  -3.1871  -2.6061  -1.8246   0.3675   2.2708   3.4070   4.1903
     5.6589   7.7478   7.9650   9.8845  11.0107  11.5907  11.9181  12.0559
    12.1795  12.2105  12.3562  12.8827  13.1435  13.3138  13.8317  13.9405
    14.5668  14.5955  14.6600  14.7744  16.6112  17.0788  17.5578  17.8379

          k = 0.3333 0.5774 0.0033 (  7047 PWs)   bands (ev):

   -59.9564 -34.5567 -34.5010 -34.3921 -11.5246 -11.4952  -5.3566  -4.4216
    -3.8911  -3.1871  -2.6061  -1.8246   0.3675   2.2708   3.4070   4.1903
     5.6589   7.7478   7.9650   9.8845  11.0105  11.5922  11.9155  12.0549
    12.1795  12.2239  12.3409  12.8841  13.1554  13.3028  13.8316  13.9441
    14.5889  14.6182  14.6588  14.7220  16.6171  17.1013  17.5352  17.8520

          k = 0.3333 0.5774 0.0000 (  7047 PWs)   bands (ev):

   -59.9564 -34.5567 -34.5010 -34.3921 -11.5246 -11.4952  -5.3566  -4.4216
    -3.8911  -3.1871  -2.6061  -1.8246   0.3675   2.2708   3.4070   4.1903
     5.6589   7.7478   7.9650   9.8845  11.0105  11.5926  11.9146  12.0546
    12.1795  12.2293  12.3349  12.8846  13.1598  13.2987  13.8316  13.9454
    14.5867  14.6584  14.6696  14.6703  16.6190  17.1093  17.5271  17.8568

     Writing output data file run_output/MoS2_2D.save/

     init_run     :      0.33s CPU      0.39s WALL (       1 calls)
     electrons    :     21.35s CPU     21.90s WALL (       1 calls)

     Called by init_run:
     wfcinit      :      0.00s CPU      0.00s WALL (       1 calls)
     wfcinit:atom :      0.02s CPU      0.02s WALL (      35 calls)
     wfcinit:wfcr :      1.13s CPU      1.24s WALL (      35 calls)
     potinit      :      0.05s CPU      0.08s WALL (       1 calls)
     hinit0       :      0.16s CPU      0.16s WALL (       1 calls)

     Called by electrons:
     c_bands      :     21.33s CPU     21.87s WALL (       1 calls)
     v_of_rho     :      0.00s CPU      0.01s WALL (       1 calls)
     v_h          :      0.00s CPU      0.00s WALL (       1 calls)
     v_xc         :      0.00s CPU      0.00s WALL (       1 calls)

     Called by c_bands:
     init_us_2    :      0.02s CPU      0.02s WALL (      35 calls)
     cegterg      :     13.70s CPU     13.96s WALL (      50 calls)

     Called by sum_band:

     Called by *egterg:
     cdiaghg      :      3.63s CPU      3.81s WALL (     673 calls)
     cegterg:over :      0.74s CPU      0.77s WALL (     638 calls)
     cegterg:upda :      0.56s CPU      0.58s WALL (     638 calls)
     cegterg:last :      0.29s CPU      0.29s WALL (     115 calls)
     cdiaghg:chol :      0.21s CPU      0.25s WALL (     673 calls)
     cdiaghg:inve :      0.20s CPU      0.22s WALL (     673 calls)
     cdiaghg:para :      0.28s CPU      0.29s WALL (    1346 calls)
     h_psi        :      9.36s CPU      9.49s WALL (     723 calls)
     g_psi        :      0.11s CPU      0.12s WALL (     638 calls)

     Called by h_psi:
     h_psi:calbec :      0.14s CPU      0.14s WALL (     723 calls)
     vloc_psi     :      9.10s CPU      9.22s WALL (     723 calls)
     add_vuspsi   :      0.08s CPU      0.08s WALL (     723 calls)

     General routines
     calbec       :      0.14s CPU      0.14s WALL (     723 calls)
     fft          :      0.02s CPU      0.02s WALL (       4 calls)
     fftw         :      7.49s CPU      7.58s WALL (   26746 calls)
     davcio       :      0.01s CPU      0.08s WALL (      70 calls)

     Parallel routines
     fft_scatt_xy :      1.22s CPU      1.23s WALL (   26750 calls)
     fft_scatt_yz :      1.42s CPU      1.44s WALL (   26750 calls)

     PWSCF        :     25.65s CPU     38.00s WALL


   This run was terminated on:  17:49: 0   4Jan2022            

=------------------------------------------------------------------------------=
   JOB DONE.
=------------------------------------------------------------------------------=
