
     Program BANDS v.6.7MaX starts on 12Oct2021 at 19:23:47 

     This program is part of the open-source Quantum ESPRESSO suite
     for quantum simulation of materials; please cite
         "P. Giannozzi et al., J. Phys.:Condens. Matter 21 395502 (2009);
         "P. Giannozzi et al., J. Phys.:Condens. Matter 29 465901 (2017);
          URL http://www.quantum-espresso.org", 
     in publications or presentations arising from this work. More details at
     http://www.quantum-espresso.org/quote

     Parallel version (MPI), running on    56 processors

     MPI processes distributed on     2 nodes
     R & G space division:  proc/nbgrp/npool/nimage =      56

     Reading xml data from directory:

     run_output/hBN_2D.save/

     IMPORTANT: XC functional enforced from input :
     Exchange-correlation= PZ
                           (   1   1   0   0   0   0   0)
     Any further DFT definition will be discarded
     Please, verify this is what you really want


     Parallelization info
     --------------------
     sticks:   dense  smooth     PW     G-vecs:    dense   smooth      PW
     Min           4       4      1                  378      378      63
     Max           5       5      2                  405      405      88
     Sum         253     253     85                21817    21817    4155

     Reading collected, re-writing distributed wavefunctions
     high-symmetry point:  0.0000 0.0000 0.0000   x coordinate   0.0000
     high-symmetry point:  0.5000 0.2887 0.0000   x coordinate   0.5774
     high-symmetry point:  0.3333 0.5774 0.0000   x coordinate   0.9107
     high-symmetry point:  0.0000 0.0000 0.0000   x coordinate   1.5774
     high-symmetry point:  0.0000 0.0000 0.0714   x coordinate   1.6488
     high-symmetry point:  0.5000 0.2887 0.0714   x coordinate   2.2261
     high-symmetry point:  0.3333 0.5774 0.0714   x coordinate   2.5595
     high-symmetry point:  0.0000 0.0000 0.0714   x coordinate   3.2261
     high-symmetry point:  0.5000 0.2887 0.0714   x coordinate   3.2261
     high-symmetry point:  0.5000 0.2887 0.0000   x coordinate   3.2976
     high-symmetry point:  0.3333 0.5774 0.0714   x coordinate   3.2976
     high-symmetry point:  0.3333 0.5774 0.0000   x coordinate   3.3690

     Plottable bands (eV) written to file bands_hBN_2D.gnu
     Bands written to file bands_hBN_2D

 **************************************************************************

                    xk=(   0.00000,   0.00000,   0.00000  )

     point group D_3h (-62m)
     there are  6 classes
     the character table:

       E     2C3   3C2   s_h   2S3   3s_v 
A'_1   1.00  1.00  1.00  1.00  1.00  1.00
A'_2   1.00  1.00 -1.00  1.00  1.00 -1.00
E'     2.00 -1.00  0.00  2.00 -1.00  0.00
A''1   1.00  1.00  1.00 -1.00 -1.00 -1.00
A''2   1.00  1.00 -1.00 -1.00 -1.00  1.00
E''    2.00 -1.00  0.00 -2.00  1.00  0.00

     the symmetry operations in each class and the name of the first element:

     E        1
                                                                 
     2C3      3    4
                                                                 
     3C2      2    6    5
                                                                 
     s_h      7
                                                                 
     2S3      9   10
                                                                 
     3s_v     8   11   12
                                                                 

     Band symmetry, D_3h (-62m) point group:

     e(  1 -  1) =    -22.11617  eV     1   --> A'_1           
     e(  2 -  2) =     -9.46853  eV     1   --> A''2           
     e(  3 -  4) =     -5.30706  eV     2   --> E'             
     e(  5 -  5) =      0.65559  eV     1   --> A'_1           
     e(  6 -  6) =      1.80070  eV     1   --> A''2           
     e(  7 -  7) =      2.06239  eV     1   --> A'_1           
     e(  8 -  8) =      3.36536  eV     1   --> A''2           
     e(  9 -  9) =      3.82757  eV     1   --> A'_1           
     e( 10 - 10) =      6.04875  eV     1   --> A''2           
     e( 11 - 11) =      6.59927  eV     1   --> A'_1           
     e( 12 - 13) =      7.47794  eV     2   --> E'             
     e( 14 - 14) =      8.93844  eV     1   --> A''2           
     e( 15 - 15) =      9.32296  eV     1   --> A'_1           
     e( 16 - 16) =     11.10151  eV     1   --> A''2           
     e( 17 - 17) =     12.01103  eV     1   --> A'_1           
     e( 18 - 18) =     15.48256  eV     1   --> A''2           
     e( 19 - 19) =     16.77023  eV     1   --> A'_1           
     e( 20 - 20) =     21.04373  eV     1   -->   ?

 **************************************************************************

 **************************************************************************

                    xk=(   0.01667,   0.00962,   0.00000  )

     point group C_2v (mm2) 
     there are  4 classes
     the character table:

       E     C2    s_v   s_v' 
A_1    1.00  1.00  1.00  1.00
A_2    1.00  1.00 -1.00 -1.00
B_1    1.00 -1.00  1.00 -1.00
B_2    1.00 -1.00 -1.00  1.00

     the symmetry operations in each class and the name of the first element:

     E        1
                                                                 
     C2       2
                                                                 
     s_v      3
                                                                 
     s_v'     4
                                                                 

     Band symmetry, C_2v (mm2)  point group:

     e(  1 -  1) =    -22.11167  eV     1   --> A_1  D_1  S_1  
     e(  2 -  2) =     -9.46144  eV     1   --> B_2  D_4  S_4  
     e(  3 -  3) =     -5.34827  eV     1   --> A_1  D_1  S_1  
     e(  4 -  4) =     -5.32841  eV     1   --> B_1  D_3  S_3  
     e(  5 -  5) =      0.66512  eV     1   --> A_1  D_1  S_1  
     e(  6 -  6) =      1.80926  eV     1   --> B_2  D_4  S_4  
     e(  7 -  7) =      2.07140  eV     1   --> A_1  D_1  S_1  
     e(  8 -  8) =      3.37378  eV     1   --> B_2  D_4  S_4  
     e(  9 -  9) =      3.83677  eV     1   --> A_1  D_1  S_1  
     e( 10 - 10) =      6.05584  eV     1   --> B_2  D_4  S_4  
     e( 11 - 11) =      6.60801  eV     1   --> A_1  D_1  S_1  
     e( 12 - 12) =      7.46831  eV     1   --> A_1  D_1  S_1  
     e( 13 - 13) =      7.50082  eV     1   --> B_1  D_3  S_3  
     e( 14 - 14) =      8.93414  eV     1   --> B_2  D_4  S_4  
     e( 15 - 15) =      9.33983  eV     1   --> A_1  D_1  S_1  
     e( 16 - 16) =     11.09993  eV     1   --> B_2  D_4  S_4  
     e( 17 - 17) =     12.02293  eV     1   --> A_1  D_1  S_1  
     e( 18 - 18) =     15.48769  eV     1   --> B_2  D_4  S_4  
     e( 19 - 19) =     16.78019  eV     1   --> A_1  D_1  S_1  
     e( 20 - 20) =     21.06111  eV     1   --> A_1  D_1  S_1  

 **************************************************************************

 **************************************************************************

                    xk=(   0.03333,   0.01925,   0.00000  )

     Band symmetry, C_2v (mm2)  point group:

     e(  1 -  1) =    -22.09582  eV     1   --> A_1  D_1  S_1  
     e(  2 -  2) =     -9.44059  eV     1   --> B_2  D_4  S_4  
     e(  3 -  3) =     -5.42107  eV     1   --> A_1  D_1  S_1  
     e(  4 -  4) =     -5.37008  eV     1   --> B_1  D_3  S_3  
     e(  5 -  5) =      0.69405  eV     1   --> A_1  D_1  S_1  
     e(  6 -  6) =      1.83471  eV     1   --> B_2  D_4  S_4  
     e(  7 -  7) =      2.09846  eV     1   --> A_1  D_1  S_1  
     e(  8 -  8) =      3.39868  eV     1   --> B_2  D_4  S_4  
     e(  9 -  9) =      3.86457  eV     1   --> A_1  D_1  S_1  
     e( 10 - 10) =      6.07582  eV     1   --> B_2  D_4  S_4  
     e( 11 - 11) =      6.63422  eV     1   --> A_1  D_1  S_1  
     e( 12 - 12) =      7.45588  eV     1   --> A_1  D_1  S_1  
     e( 13 - 13) =      7.57496  eV     1   --> B_1  D_3  S_3  
     e( 14 - 14) =      8.91445  eV     1   --> B_2  D_4  S_4  
     e( 15 - 15) =      9.39091  eV     1   --> A_1  D_1  S_1  
     e( 16 - 16) =     11.09317  eV     1   --> B_2  D_4  S_4  
     e( 17 - 17) =     12.05848  eV     1   --> A_1  D_1  S_1  
     e( 18 - 18) =     15.50316  eV     1   --> B_2  D_4  S_4  
     e( 19 - 19) =     16.80988  eV     1   --> A_1  D_1  S_1  
     e( 20 - 20) =     21.11310  eV     1   --> A_1  D_1  S_1  

 **************************************************************************

 **************************************************************************

                    xk=(   0.05000,   0.02887,   0.00000  )

     Band symmetry, C_2v (mm2)  point group:

     e(  1 -  1) =    -22.06845  eV     1   --> A_1  D_1  S_1  
     e(  2 -  2) =     -9.39937  eV     1   --> B_2  D_4  S_4  
     e(  3 -  3) =     -5.53909  eV     1   --> A_1  D_1  S_1  
     e(  4 -  4) =     -5.41913  eV     1   --> B_1  D_3  S_3  
     e(  5 -  5) =      0.74200  eV     1   --> A_1  D_1  S_1  
     e(  6 -  6) =      1.87790  eV     1   --> B_2  D_4  S_4  
     e(  7 -  7) =      2.14354  eV     1   --> A_1  D_1  S_1  
     e(  8 -  8) =      3.44106  eV     1   --> B_2  D_4  S_4  
     e(  9 -  9) =      3.91076  eV     1   --> A_1  D_1  S_1  
     e( 10 - 10) =      6.11055  eV     1   --> B_2  D_4  S_4  
     e( 11 - 11) =      6.67603  eV     1   --> A_1  D_1  S_1  
     e( 12 - 12) =      7.44162  eV     1   --> A_1  D_1  S_1  
     e( 13 - 13) =      7.70297  eV     1   --> B_1  D_3  S_3  
     e( 14 - 14) =      8.88348  eV     1   --> B_2  D_4  S_4  
     e( 15 - 15) =      9.47475  eV     1   --> A_1  D_1  S_1  
     e( 16 - 16) =     11.08534  eV     1   --> B_2  D_4  S_4  
     e( 17 - 17) =     12.11748  eV     1   --> A_1  D_1  S_1  
     e( 18 - 18) =     15.52985  eV     1   --> B_2  D_4  S_4  
     e( 19 - 19) =     16.85907  eV     1   --> A_1  D_1  S_1  
     e( 20 - 20) =     21.15085  eV     1   --> B_2  D_4  S_4  

 **************************************************************************

 **************************************************************************

                    xk=(   0.06667,   0.03849,   0.00000  )

     Band symmetry, C_2v (mm2)  point group:

     e(  1 -  1) =    -22.03032  eV     1   --> A_1  D_1  S_1  
     e(  2 -  2) =     -9.34568  eV     1   --> B_2  D_4  S_4  
     e(  3 -  3) =     -5.68903  eV     1   --> A_1  D_1  S_1  
     e(  4 -  4) =     -5.49443  eV     1   --> B_1  D_3  S_3  
     e(  5 -  5) =      0.80851  eV     1   --> A_1  D_1  S_1  
     e(  6 -  6) =      1.93789  eV     1   --> B_2  D_4  S_4  
     e(  7 -  7) =      2.20659  eV     1   --> A_1  D_1  S_1  
     e(  8 -  8) =      3.49985  eV     1   --> B_2  D_4  S_4  
     e(  9 -  9) =      3.97506  eV     1   --> A_1  D_1  S_1  
     e( 10 - 10) =      6.15769  eV     1   --> B_2  D_4  S_4  
     e( 11 - 11) =      6.72994  eV     1   --> A_1  D_1  S_1  
     e( 12 - 12) =      7.42859  eV     1   --> A_1  D_1  S_1  
     e( 13 - 13) =      7.87606  eV     1   --> B_1  D_3  S_3  
     e( 14 - 14) =      8.83835  eV     1   --> B_2  D_4  S_4  
     e( 15 - 15) =      9.58911  eV     1   --> A_1  D_1  S_1  
     e( 16 - 16) =     11.08167  eV     1   --> B_2  D_4  S_4  
     e( 17 - 17) =     12.19932  eV     1   --> A_1  D_1  S_1  
     e( 18 - 18) =     15.56722  eV     1   --> B_2  D_4  S_4  
     e( 19 - 19) =     16.92715  eV     1   --> A_1  D_1  S_1  
     e( 20 - 20) =     21.14444  eV     1   --> B_2  D_4  S_4  

 **************************************************************************

 **************************************************************************

                    xk=(   0.08333,   0.04811,   0.00000  )

     Band symmetry, C_2v (mm2)  point group:

     e(  1 -  1) =    -21.98224  eV     1   --> A_1  D_1  S_1  
     e(  2 -  2) =     -9.27865  eV     1   --> B_2  D_4  S_4  
     e(  3 -  3) =     -5.89412  eV     1   --> A_1  D_1  S_1  
     e(  4 -  4) =     -5.58867  eV     1   --> B_1  D_3  S_3  
     e(  5 -  5) =      0.89264  eV     1   --> A_1  D_1  S_1  
     e(  6 -  6) =      2.01452  eV     1   --> B_2  D_4  S_4  
     e(  7 -  7) =      2.28748  eV     1   --> A_1  D_1  S_1  
     e(  8 -  8) =      3.57471  eV     1   --> B_2  D_4  S_4  
     e(  9 -  9) =      4.05694  eV     1   --> A_1  D_1  S_1  
     e( 10 - 10) =      6.21482  eV     1   --> B_2  D_4  S_4  
     e( 11 - 11) =      6.78977  eV     1   --> A_1  D_1  S_1  
     e( 12 - 12) =      7.42385  eV     1   --> A_1  D_1  S_1  
     e( 13 - 13) =      8.09399  eV     1   --> B_1  D_3  S_3  
     e( 14 - 14) =      8.76989  eV     1   --> B_2  D_4  S_4  
     e( 15 - 15) =      9.72926  eV     1   --> A_1  D_1  S_1  
     e( 16 - 16) =     11.08467  eV     1   --> B_2  D_4  S_4  
     e( 17 - 17) =     12.30266  eV     1   --> A_1  D_1  S_1  
     e( 18 - 18) =     15.61564  eV     1   --> B_2  D_4  S_4  
     e( 19 - 19) =     17.01348  eV     1   --> A_1  D_1  S_1  
     e( 20 - 20) =     21.11822  eV     1   --> B_2  D_4  S_4  

 **************************************************************************

 **************************************************************************

                    xk=(   0.10000,   0.05774,   0.00000  )

     Band symmetry, C_2v (mm2)  point group:

     e(  1 -  1) =    -21.92352  eV     1   --> A_1  D_1  S_1  
     e(  2 -  2) =     -9.19925  eV     1   --> B_2  D_4  S_4  
     e(  3 -  3) =     -6.13056  eV     1   --> A_1  D_1  S_1  
     e(  4 -  4) =     -5.69735  eV     1   --> B_1  D_3  S_3  
     e(  5 -  5) =      0.99423  eV     1   --> A_1  D_1  S_1  
     e(  6 -  6) =      2.10747  eV     1   --> B_2  D_4  S_4  
     e(  7 -  7) =      2.38620  eV     1   --> A_1  D_1  S_1  
     e(  8 -  8) =      3.66518  eV     1   --> B_2  D_4  S_4  
     e(  9 -  9) =      4.15618  eV     1   --> A_1  D_1  S_1  
     e( 10 - 10) =      6.27900  eV     1   --> B_2  D_4  S_4  
     e( 11 - 11) =      6.84578  eV     1   --> A_1  D_1  S_1  
     e( 12 - 12) =      7.43422  eV     1   --> A_1  D_1  S_1  
     e( 13 - 13) =      8.35825  eV     1   --> B_1  D_3  S_3  
     e( 14 - 14) =      8.67550  eV     1   --> B_2  D_4  S_4  
     e( 15 - 15) =      9.89416  eV     1   --> A_1  D_1  S_1  
     e( 16 - 16) =     11.10003  eV     1   --> B_2  D_4  S_4  
     e( 17 - 17) =     12.42694  eV     1   --> A_1  D_1  S_1  
     e( 18 - 18) =     15.67514  eV     1   --> B_2  D_4  S_4  
     e( 19 - 19) =     17.11727  eV     1   --> A_1  D_1  S_1  
     e( 20 - 20) =     21.05224  eV     1   --> B_2  D_4  S_4  

 **************************************************************************

 **************************************************************************

                    xk=(   0.11667,   0.06736,   0.00000  )

     Band symmetry, C_2v (mm2)  point group:

     e(  1 -  1) =    -21.85523  eV     1   --> A_1  D_1  S_1  
     e(  2 -  2) =     -9.10695  eV     1   --> B_2  D_4  S_4  
     e(  3 -  3) =     -6.40068  eV     1   --> A_1  D_1  S_1  
     e(  4 -  4) =     -5.82714  eV     1   --> B_1  D_3  S_3  
     e(  5 -  5) =      1.11255  eV     1   --> A_1  D_1  S_1  
     e(  6 -  6) =      2.21670  eV     1   --> B_2  D_4  S_4  
     e(  7 -  7) =      2.50265  eV     1   --> A_1  D_1  S_1  
     e(  8 -  8) =      3.77107  eV     1   --> B_2  D_4  S_4  
     e(  9 -  9) =      4.27227  eV     1   --> A_1  D_1  S_1  
     e( 10 - 10) =      6.34721  eV     1   --> B_2  D_4  S_4  
     e( 11 - 11) =      6.88640  eV     1   --> A_1  D_1  S_1  
     e( 12 - 12) =      7.47590  eV     1   --> A_1  D_1  S_1  
     e( 13 - 13) =      8.56104  eV     1   --> B_2  D_4  S_4  
     e( 14 - 14) =      8.65725  eV     1   --> B_1  D_3  S_3  
     e( 15 - 15) =     10.08015  eV     1   --> A_1  D_1  S_1  
     e( 16 - 16) =     11.13371  eV     1   --> B_2  D_4  S_4  
     e( 17 - 17) =     12.57076  eV     1   --> A_1  D_1  S_1  
     e( 18 - 18) =     15.74529  eV     1   --> B_2  D_4  S_4  
     e( 19 - 19) =     17.23764  eV     1   --> A_1  D_1  S_1  
     e( 20 - 20) =     20.91704  eV     1   --> B_2  D_4  S_4  

 **************************************************************************

 **************************************************************************

                    xk=(   0.13333,   0.07698,   0.00000  )

     Band symmetry, C_2v (mm2)  point group:

     e(  1 -  1) =    -21.77570  eV     1   --> A_1  D_1  S_1  
     e(  2 -  2) =     -8.99745  eV     1   --> B_2  D_4  S_4  
     e(  3 -  3) =     -6.69524  eV     1   --> A_1  D_1  S_1  
     e(  4 -  4) =     -5.95567  eV     1   --> B_1  D_3  S_3  
     e(  5 -  5) =      1.24762  eV     1   --> A_1  D_1  S_1  
     e(  6 -  6) =      2.34261  eV     1   --> B_2  D_4  S_4  
     e(  7 -  7) =      2.63683  eV     1   --> A_1  D_1  S_1  
     e(  8 -  8) =      3.89265  eV     1   --> B_2  D_4  S_4  
     e(  9 -  9) =      4.40496  eV     1   --> A_1  D_1  S_1  
     e( 10 - 10) =      6.41582  eV     1   --> B_2  D_4  S_4  
     e( 11 - 11) =      6.90226  eV     1   --> A_1  D_1  S_1  
     e( 12 - 12) =      7.55566  eV     1   --> A_1  D_1  S_1  
     e( 13 - 13) =      8.43720  eV     1   --> B_2  D_4  S_4  
     e( 14 - 14) =      9.00011  eV     1   --> B_1  D_3  S_3  
     e( 15 - 15) =     10.28630  eV     1   --> A_1  D_1  S_1  
     e( 16 - 16) =     11.18916  eV     1   --> B_2  D_4  S_4  
     e( 17 - 17) =     12.73323  eV     1   --> A_1  D_1  S_1  
     e( 18 - 18) =     15.82563  eV     1   --> B_2  D_4  S_4  
     e( 19 - 19) =     17.37364  eV     1   --> A_1  D_1  S_1  
     e( 20 - 20) =     20.68842  eV     1   --> B_2  D_4  S_4  

 **************************************************************************

 **************************************************************************

                    xk=(   0.15000,   0.08660,   0.00000  )

     Band symmetry, C_2v (mm2)  point group:

     e(  1 -  1) =    -21.68626  eV     1   --> A_1  D_1  S_1  
     e(  2 -  2) =     -8.87434  eV     1   --> B_2  D_4  S_4  
     e(  3 -  3) =     -7.01909  eV     1   --> A_1  D_1  S_1  
     e(  4 -  4) =     -6.09845  eV     1   --> B_1  D_3  S_3  
     e(  5 -  5) =      1.39897  eV     1   --> A_1  D_1  S_1  
     e(  6 -  6) =      2.48416  eV     1   --> B_2  D_4  S_4  
     e(  7 -  7) =      2.78866  eV     1   --> A_1  D_1  S_1  
     e(  8 -  8) =      4.02822  eV     1   --> B_2  D_4  S_4  
     e(  9 -  9) =      4.55372  eV     1   --> A_1  D_1  S_1  
     e( 10 - 10) =      6.47278  eV     1   --> B_2  D_4  S_4  
     e( 11 - 11) =      6.89588  eV     1   --> A_1  D_1  S_1  
     e( 12 - 12) =      7.67492  eV     1   --> A_1  D_1  S_1  
     e( 13 - 13) =      8.31038  eV     1   --> B_2  D_4  S_4  
     e( 14 - 14) =      9.37200  eV     1   --> B_1  D_3  S_3  
     e( 15 - 15) =     10.50928  eV     1   --> A_1  D_1  S_1  
     e( 16 - 16) =     11.26731  eV     1   --> B_2  D_4  S_4  
     e( 17 - 17) =     12.91240  eV     1   --> A_1  D_1  S_1  
     e( 18 - 18) =     15.91408  eV     1   --> B_2  D_4  S_4  
     e( 19 - 19) =     17.52411  eV     1   --> A_1  D_1  S_1  
     e( 20 - 20) =     20.36908  eV     1   --> B_2  D_4  S_4  

 **************************************************************************

 **************************************************************************

                    xk=(   0.16667,   0.09623,   0.00000  )

     Band symmetry, C_2v (mm2)  point group:

     e(  1 -  1) =    -21.58770  eV     1   --> A_1  D_1  S_1  
     e(  2 -  2) =     -8.73629  eV     1   --> B_2  D_4  S_4  
     e(  3 -  3) =     -7.36251  eV     1   --> A_1  D_1  S_1  
     e(  4 -  4) =     -6.24767  eV     1   --> B_1  D_3  S_3  
     e(  5 -  5) =      1.56563  eV     1   --> A_1  D_1  S_1  
     e(  6 -  6) =      2.64068  eV     1   --> B_2  D_4  S_4  
     e(  7 -  7) =      2.95799  eV     1   --> A_1  D_1  S_1  
     e(  8 -  8) =      4.17621  eV     1   --> B_2  D_4  S_4  
     e(  9 -  9) =      4.71754  eV     1   --> A_1  D_1  S_1  
     e( 10 - 10) =      6.50217  eV     1   --> B_2  D_4  S_4  
     e( 11 - 11) =      6.87647  eV     1   --> A_1  D_1  S_1  
     e( 12 - 12) =      7.82630  eV     1   --> A_1  D_1  S_1  
     e( 13 - 13) =      8.19842  eV     1   --> B_2  D_4  S_4  
     e( 14 - 14) =      9.78379  eV     1   --> B_1  D_3  S_3  
     e( 15 - 15) =     10.74242  eV     1   --> A_1  D_1  S_1  
     e( 16 - 16) =     11.36847  eV     1   --> B_2  D_4  S_4  
     e( 17 - 17) =     13.10462  eV     1   --> A_1  D_1  S_1  
     e( 18 - 18) =     16.00781  eV     1   --> B_2  D_4  S_4  
     e( 19 - 19) =     17.68777  eV     1   --> A_1  D_1  S_1  
     e( 20 - 20) =     19.99227  eV     1   --> B_2  D_4  S_4  

 **************************************************************************

 **************************************************************************

                    xk=(   0.18333,   0.10585,   0.00000  )

     Band symmetry, C_2v (mm2)  point group:

     e(  1 -  1) =    -21.47866  eV     1   --> A_1  D_1  S_1  
     e(  2 -  2) =     -8.58504  eV     1   --> B_2  D_4  S_4  
     e(  3 -  3) =     -7.70497  eV     1   --> A_1  D_1  S_1  
     e(  4 -  4) =     -6.39113  eV     1   --> B_1  D_3  S_3  
     e(  5 -  5) =      1.74856  eV     1   --> A_1  D_1  S_1  
     e(  6 -  6) =      2.81122  eV     1   --> B_2  D_4  S_4  
     e(  7 -  7) =      3.14494  eV     1   --> A_1  D_1  S_1  
     e(  8 -  8) =      4.33434  eV     1   --> B_2  D_4  S_4  
     e(  9 -  9) =      4.89614  eV     1   --> A_1  D_1  S_1  
     e( 10 - 10) =      6.48935  eV     1   --> B_2  D_4  S_4  
     e( 11 - 11) =      6.84994  eV     1   --> A_1  D_1  S_1  
     e( 12 - 12) =      8.00559  eV     1   --> A_1  D_1  S_1  
     e( 13 - 13) =      8.13083  eV     1   --> B_2  D_4  S_4  
     e( 14 - 14) =     10.22093  eV     1   --> B_1  D_3  S_3  
     e( 15 - 15) =     10.99321  eV     1   --> A_1  D_1  S_1  
     e( 16 - 16) =     11.49212  eV     1   --> B_2  D_4  S_4  
     e( 17 - 17) =     13.31174  eV     1   --> A_1  D_1  S_1  
     e( 18 - 18) =     16.10155  eV     1   --> B_2  D_4  S_4  
     e( 19 - 19) =     17.86307  eV     1   --> A_1  D_1  S_1  
     e( 20 - 20) =     19.59735  eV     1   --> B_2  D_4  S_4  

 **************************************************************************

 **************************************************************************

                    xk=(   0.20000,   0.11547,   0.00000  )

     Band symmetry, C_2v (mm2)  point group:

     e(  1 -  1) =    -21.36054  eV     1   --> A_1  D_1  S_1  
     e(  2 -  2) =     -8.41770  eV     1   --> B_2  D_4  S_4  
     e(  3 -  3) =     -8.06716  eV     1   --> A_1  D_1  S_1  
     e(  4 -  4) =     -6.54026  eV     1   --> B_1  D_3  S_3  
     e(  5 -  5) =      1.94685  eV     1   --> A_1  D_1  S_1  
     e(  6 -  6) =      2.99443  eV     1   --> B_2  D_4  S_4  
     e(  7 -  7) =      3.34935  eV     1   --> A_1  D_1  S_1  
     e(  8 -  8) =      4.49846  eV     1   --> B_2  D_4  S_4  
     e(  9 -  9) =      5.08788  eV     1   --> A_1  D_1  S_1  
     e( 10 - 10) =      6.42453  eV     1   --> B_2  D_4  S_4  
     e( 11 - 11) =      6.82290  eV     1   --> A_1  D_1  S_1  
     e( 12 - 12) =      8.12623  eV     1   --> B_2  D_4  S_4  
     e( 13 - 13) =      8.20673  eV     1   --> A_1  D_1  S_1  
     e( 14 - 14) =     10.68268  eV     1   --> B_1  D_3  S_3  
     e( 15 - 15) =     11.25338  eV     1   --> A_1  D_1  S_1  
     e( 16 - 16) =     11.63685  eV     1   --> B_2  D_4  S_4  
     e( 17 - 17) =     13.52795  eV     1   --> A_1  D_1  S_1  
     e( 18 - 18) =     16.18770  eV     1   --> B_2  D_4  S_4  
     e( 19 - 19) =     18.04671  eV     1   --> A_1  D_1  S_1  
     e( 20 - 20) =     19.21402  eV     1   --> B_2  D_4  S_4  

 **************************************************************************

 **************************************************************************

                    xk=(   0.21667,   0.12509,   0.00000  )

     Band symmetry, C_2v (mm2)  point group:

     e(  1 -  1) =    -21.23449  eV     1   --> A_1  D_1  S_1  
     e(  2 -  2) =     -8.43655  eV     1   --> A_1  D_1  S_1  
     e(  3 -  3) =     -8.24034  eV     1   --> B_2  D_4  S_4  
     e(  4 -  4) =     -6.68122  eV     1   --> B_1  D_3  S_3  
     e(  5 -  5) =      2.15980  eV     1   --> A_1  D_1  S_1  
     e(  6 -  6) =      3.18565  eV     1   --> B_2  D_4  S_4  
     e(  7 -  7) =      3.57108  eV     1   --> A_1  D_1  S_1  
     e(  8 -  8) =      4.65786  eV     1   --> B_2  D_4  S_4  
     e(  9 -  9) =      5.29028  eV     1   --> A_1  D_1  S_1  
     e( 10 - 10) =      6.31251  eV     1   --> B_2  D_4  S_4  
     e( 11 - 11) =      6.80092  eV     1   --> A_1  D_1  S_1  
     e( 12 - 12) =      8.18967  eV     1   --> B_2  D_4  S_4  
     e( 13 - 13) =      8.42731  eV     1   --> A_1  D_1  S_1  
     e( 14 - 14) =     11.16891  eV     1   --> B_1  D_3  S_3  
     e( 15 - 15) =     11.51997  eV     1   --> A_1  D_1  S_1  
     e( 16 - 16) =     11.80083  eV     1   --> B_2  D_4  S_4  
     e( 17 - 17) =     13.74934  eV     1   --> A_1  D_1  S_1  
     e( 18 - 18) =     16.25357  eV     1   --> B_2  D_4  S_4  
     e( 19 - 19) =     18.23251  eV     1   --> A_1  D_1  S_1  
     e( 20 - 20) =     18.86541  eV     1   --> B_2  D_4  S_4  

 **************************************************************************

 **************************************************************************

                    xk=(   0.23333,   0.13472,   0.00000  )

     Band symmetry, C_2v (mm2)  point group:

     e(  1 -  1) =    -21.10042  eV     1   --> A_1  D_1  S_1  
     e(  2 -  2) =     -8.81718  eV     1   --> A_1  D_1  S_1  
     e(  3 -  3) =     -8.05417  eV     1   --> B_2  D_4  S_4  
     e(  4 -  4) =     -6.83582  eV     1   --> B_1  D_3  S_3  
     e(  5 -  5) =      2.38758  eV     1   --> A_1  D_1  S_1  
     e(  6 -  6) =      3.37658  eV     1   --> B_2  D_4  S_4  
     e(  7 -  7) =      3.81011  eV     1   --> A_1  D_1  S_1  
     e(  8 -  8) =      4.79212  eV     1   --> B_2  D_4  S_4  
     e(  9 -  9) =      5.49971  eV     1   --> A_1  D_1  S_1  
     e( 10 - 10) =      6.18410  eV     1   --> B_2  D_4  S_4  
     e( 11 - 11) =      6.78902  eV     1   --> A_1  D_1  S_1  
     e( 12 - 12) =      8.31293  eV     1   --> B_2  D_4  S_4  
     e( 13 - 13) =      8.66564  eV     1   --> A_1  D_1  S_1  
     e( 14 - 14) =     11.66324  eV     1   --> B_1  D_3  S_3  
     e( 15 - 15) =     11.79103  eV     1   --> A_1  D_1  S_1  
     e( 16 - 16) =     11.98196  eV     1   --> B_2  D_4  S_4  
     e( 17 - 17) =     13.97082  eV     1   --> A_1  D_1  S_1  
     e( 18 - 18) =     16.28039  eV     1   --> B_2  D_4  S_4  
     e( 19 - 19) =     18.40295  eV     1   --> A_1  D_1  S_1  
     e( 20 - 20) =     18.56969  eV     1   --> B_2  D_4  S_4  

 **************************************************************************

 **************************************************************************

                    xk=(   0.25000,   0.14434,   0.00000  )

     Band symmetry, C_2v (mm2)  point group:

     e(  1 -  1) =    -20.95859  eV     1   --> A_1  D_1  S_1  
     e(  2 -  2) =     -9.19012  eV     1   --> A_1  D_1  S_1  
     e(  3 -  3) =     -7.85376  eV     1   --> B_2  D_4  S_4  
     e(  4 -  4) =     -6.98381  eV     1   --> B_1  D_3  S_3  
     e(  5 -  5) =      2.62976  eV     1   --> A_1  D_1  S_1  
     e(  6 -  6) =      3.55437  eV     1   --> B_2  D_4  S_4  
     e(  7 -  7) =      4.06625  eV     1   --> A_1  D_1  S_1  
     e(  8 -  8) =      4.87726  eV     1   --> B_2  D_4  S_4  
     e(  9 -  9) =      5.70924  eV     1   --> A_1  D_1  S_1  
     e( 10 - 10) =      6.10856  eV     1   --> B_2  D_4  S_4  
     e( 11 - 11) =      6.79871  eV     1   --> A_1  D_1  S_1  
     e( 12 - 12) =      8.48491  eV     1   --> B_2  D_4  S_4  
     e( 13 - 13) =      8.92154  eV     1   --> A_1  D_1  S_1  
     e( 14 - 14) =     12.06594  eV     1   --> A_1  D_1  S_1  
     e( 15 - 15) =     12.17708  eV     1   --> B_1  D_3  S_3  
     e( 16 - 16) =     12.17826  eV     1   --> B_2  D_4  S_4  
     e( 17 - 17) =     14.18801  eV     1   --> A_1  D_1  S_1  
     e( 18 - 18) =     16.24780  eV     1   --> B_2  D_4  S_4  
     e( 19 - 19) =     18.34494  eV     1   --> B_2  D_4  S_4  
     e( 20 - 20) =     18.49064  eV     1   --> A_1  D_1  S_1  

 **************************************************************************

 **************************************************************************

                    xk=(   0.26667,   0.15396,   0.00000  )

     Band symmetry, C_2v (mm2)  point group:

     e(  1 -  1) =    -20.80987  eV     1   --> A_1  D_1  S_1  
     e(  2 -  2) =     -9.56502  eV     1   --> A_1  D_1  S_1  
     e(  3 -  3) =     -7.64164  eV     1   --> B_2  D_4  S_4  
     e(  4 -  4) =     -7.12802  eV     1   --> B_1  D_3  S_3  
     e(  5 -  5) =      2.88528  eV     1   --> A_1  D_1  S_1  
     e(  6 -  6) =      3.68645  eV     1   --> B_2  D_4  S_4  
     e(  7 -  7) =      4.33919  eV     1   --> A_1  D_1  S_1  
     e(  8 -  8) =      4.90589  eV     1   --> B_2  D_4  S_4  
     e(  9 -  9) =      5.90553  eV     1   --> A_1  D_1  S_1  
     e( 10 - 10) =      6.13875  eV     1   --> B_2  D_4  S_4  
     e( 11 - 11) =      6.84262  eV     1   --> A_1  D_1  S_1  
     e( 12 - 12) =      8.69403  eV     1   --> B_2  D_4  S_4  
     e( 13 - 13) =      9.19394  eV     1   --> A_1  D_1  S_1  
     e( 14 - 14) =     12.33693  eV     1   --> A_1  D_1  S_1  
     e( 15 - 15) =     12.38665  eV     1   --> B_2  D_4  S_4  
     e( 16 - 16) =     12.70625  eV     1   --> B_1  D_3  S_3  
     e( 17 - 17) =     14.38952  eV     1   --> A_1  D_1  S_1  
     e( 18 - 18) =     16.14122  eV     1   --> B_2  D_4  S_4  
     e( 19 - 19) =     18.18796  eV     1   --> B_2  D_4  S_4  
     e( 20 - 20) =     18.28421  eV     1   --> A_1  D_1  S_1  

 **************************************************************************

 **************************************************************************

                    xk=(   0.28333,   0.16358,   0.00000  )

     Band symmetry, C_2v (mm2)  point group:

     e(  1 -  1) =    -20.65616  eV     1   --> A_1  D_1  S_1  
     e(  2 -  2) =     -9.94466  eV     1   --> A_1  D_1  S_1  
     e(  3 -  3) =     -7.42009  eV     1   --> B_2  D_4  S_4  
     e(  4 -  4) =     -7.26775  eV     1   --> B_1  D_3  S_3  
     e(  5 -  5) =      3.15222  eV     1   --> A_1  D_1  S_1  
     e(  6 -  6) =      3.71382  eV     1   --> B_2  D_4  S_4  
     e(  7 -  7) =      4.62831  eV     1   --> A_1  D_1  S_1  
     e(  8 -  8) =      4.93913  eV     1   --> B_2  D_4  S_4  
     e(  9 -  9) =      6.06954  eV     1   --> A_1  D_1  S_1  
     e( 10 - 10) =      6.27863  eV     1   --> B_2  D_4  S_4  
     e( 11 - 11) =      6.94189  eV     1   --> A_1  D_1  S_1  
     e( 12 - 12) =      8.93259  eV     1   --> B_2  D_4  S_4  
     e( 13 - 13) =      9.48157  eV     1   --> A_1  D_1  S_1  
     e( 14 - 14) =     12.59073  eV     1   --> A_1  D_1  S_1  
     e( 15 - 15) =     12.60313  eV     1   --> B_2  D_4  S_4  
     e( 16 - 16) =     13.23760  eV     1   --> B_1  D_3  S_3  
     e( 17 - 17) =     14.56145  eV     1   --> A_1  D_1  S_1  
     e( 18 - 18) =     15.96162  eV     1   --> B_2  D_4  S_4  
     e( 19 - 19) =     17.80880  eV     1   --> A_1  D_1  S_1  
     e( 20 - 20) =     18.04614  eV     1   --> B_2  D_4  S_4  

 **************************************************************************

 **************************************************************************

                    xk=(   0.30000,   0.17321,   0.00000  )

     Band symmetry, C_2v (mm2)  point group:

     e(  1 -  1) =    -20.49798  eV     1   --> A_1  D_1  S_1  
     e(  2 -  2) =    -10.31774  eV     1   --> A_1  D_1  S_1  
     e(  3 -  3) =     -7.39960  eV     1   --> B_1  D_3  S_3  
     e(  4 -  4) =     -7.19781  eV     1   --> B_2  D_4  S_4  
     e(  5 -  5) =      3.43064  eV     1   --> A_1  D_1  S_1  
     e(  6 -  6) =      3.59234  eV     1   --> B_2  D_4  S_4  
     e(  7 -  7) =      4.93288  eV     1   --> A_1  D_1  S_1  
     e(  8 -  8) =      5.05940  eV     1   --> B_2  D_4  S_4  
     e(  9 -  9) =      6.18968  eV     1   --> A_1  D_1  S_1  
     e( 10 - 10) =      6.49654  eV     1   --> B_2  D_4  S_4  
     e( 11 - 11) =      7.11142  eV     1   --> A_1  D_1  S_1  
     e( 12 - 12) =      9.19475  eV     1   --> B_2  D_4  S_4  
     e( 13 - 13) =      9.78460  eV     1   --> A_1  D_1  S_1  
     e( 14 - 14) =     12.81678  eV     1   --> A_1  D_1  S_1  
     e( 15 - 15) =     12.82007  eV     1   --> B_2  D_4  S_4  
     e( 16 - 16) =     13.77396  eV     1   --> B_1  D_3  S_3  
     e( 17 - 17) =     14.69272  eV     1   --> A_1  D_1  S_1  
     e( 18 - 18) =     15.72508  eV     1   --> B_2  D_4  S_4  
     e( 19 - 19) =     17.28956  eV     1   --> A_1  D_1  S_1  
     e( 20 - 20) =     17.78793  eV     1   --> B_2  D_4  S_4  

 **************************************************************************

 **************************************************************************

                    xk=(   0.31667,   0.18283,   0.00000  )

     Band symmetry, C_2v (mm2)  point group:

     e(  1 -  1) =    -20.33627  eV     1   --> A_1  D_1  S_1  
     e(  2 -  2) =    -10.67901  eV     1   --> A_1  D_1  S_1  
     e(  3 -  3) =     -7.53212  eV     1   --> B_1  D_3  S_3  
     e(  4 -  4) =     -6.95639  eV     1   --> B_2  D_4  S_4  
     e(  5 -  5) =      3.35655  eV     1   --> B_2  D_4  S_4  
     e(  6 -  6) =      3.71760  eV     1   --> A_1  D_1  S_1  
     e(  7 -  7) =      5.25090  eV     1   --> A_1  D_1  S_1  
     e(  8 -  8) =      5.27320  eV     1   --> B_2  D_4  S_4  
     e(  9 -  9) =      6.27538  eV     1   --> A_1  D_1  S_1  
     e( 10 - 10) =      6.76461  eV     1   --> B_2  D_4  S_4  
     e( 11 - 11) =      7.34817  eV     1   --> A_1  D_1  S_1  
     e( 12 - 12) =      9.47836  eV     1   --> B_2  D_4  S_4  
     e( 13 - 13) =     10.10176  eV     1   --> A_1  D_1  S_1  
     e( 14 - 14) =     12.98081  eV     1   --> A_1  D_1  S_1  
     e( 15 - 15) =     13.03069  eV     1   --> B_2  D_4  S_4  
     e( 16 - 16) =     14.30708  eV     1   --> B_1  D_3  S_3  
     e( 17 - 17) =     14.77559  eV     1   --> A_1  D_1  S_1  
     e( 18 - 18) =     15.45420  eV     1   --> B_2  D_4  S_4  
     e( 19 - 19) =     16.76591  eV     1   --> A_1  D_1  S_1  
     e( 20 - 20) =     17.33404  eV     1   --> B_2  D_4  S_4  

 **************************************************************************

 **************************************************************************

                    xk=(   0.33333,   0.19245,   0.00000  )

     Band symmetry, C_2v (mm2)  point group:

     e(  1 -  1) =    -20.17370  eV     1   --> A_1  D_1  S_1  
     e(  2 -  2) =    -11.02736  eV     1   --> A_1  D_1  S_1  
     e(  3 -  3) =     -7.64871  eV     1   --> B_1  D_3  S_3  
     e(  4 -  4) =     -6.71787  eV     1   --> B_2  D_4  S_4  
     e(  5 -  5) =      3.05195  eV     1   --> B_2  D_4  S_4  
     e(  6 -  6) =      4.00863  eV     1   --> A_1  D_1  S_1  
     e(  7 -  7) =      5.54939  eV     1   --> B_2  D_4  S_4  
     e(  8 -  8) =      5.57736  eV     1   --> A_1  D_1  S_1  
     e(  9 -  9) =      6.34932  eV     1   --> A_1  D_1  S_1  
     e( 10 - 10) =      7.06691  eV     1   --> B_2  D_4  S_4  
     e( 11 - 11) =      7.63495  eV     1   --> A_1  D_1  S_1  
     e( 12 - 12) =      9.77866  eV     1   --> B_2  D_4  S_4  
     e( 13 - 13) =     10.43139  eV     1   --> A_1  D_1  S_1  
     e( 14 - 14) =     13.03504  eV     1   --> A_1  D_1  S_1  
     e( 15 - 15) =     13.21223  eV     1   --> B_2  D_4  S_4  
     e( 16 - 16) =     14.82929  eV     1   --> A_1  D_1  S_1  
     e( 17 - 17) =     14.83937  eV     1   --> B_1  D_3  S_3  
     e( 18 - 18) =     15.16739  eV     1   --> B_2  D_4  S_4  
     e( 19 - 19) =     16.19672  eV     1   --> A_1  D_1  S_1  
     e( 20 - 20) =     16.79483  eV     1   --> B_2  D_4  S_4  

 **************************************************************************

 **************************************************************************

                    xk=(   0.35000,   0.20207,   0.00000  )

     Band symmetry, C_2v (mm2)  point group:

     e(  1 -  1) =    -20.01090  eV     1   --> A_1  D_1  S_1  
     e(  2 -  2) =    -11.36251  eV     1   --> A_1  D_1  S_1  
     e(  3 -  3) =     -7.76243  eV     1   --> B_1  D_3  S_3  
     e(  4 -  4) =     -6.47558  eV     1   --> B_2  D_4  S_4  
     e(  5 -  5) =      2.71554  eV     1   --> B_2  D_4  S_4  
     e(  6 -  6) =      4.29912  eV     1   --> A_1  D_1  S_1  
     e(  7 -  7) =      5.86600  eV     1   --> B_2  D_4  S_4  
     e(  8 -  8) =      5.89871  eV     1   --> A_1  D_1  S_1  
     e(  9 -  9) =      6.44647  eV     1   --> A_1  D_1  S_1  
     e( 10 - 10) =      7.39570  eV     1   --> B_2  D_4  S_4  
     e( 11 - 11) =      7.95842  eV     1   --> A_1  D_1  S_1  
     e( 12 - 12) =     10.09352  eV     1   --> B_2  D_4  S_4  
     e( 13 - 13) =     10.77140  eV     1   --> A_1  D_1  S_1  
     e( 14 - 14) =     12.93501  eV     1   --> A_1  D_1  S_1  
     e( 15 - 15) =     13.32978  eV     1   --> B_2  D_4  S_4  
     e( 16 - 16) =     14.88668  eV     1   --> A_1  D_1  S_1  
     e( 17 - 17) =     14.89154  eV     1   --> B_2  D_4  S_4  
     e( 18 - 18) =     15.35877  eV     1   --> B_1  D_3  S_3  
     e( 19 - 19) =     15.59383  eV     1   --> A_1  D_1  S_1  
     e( 20 - 20) =     16.25940  eV     1   --> B_2  D_4  S_4  

 **************************************************************************

 **************************************************************************

                    xk=(   0.36667,   0.21170,   0.00000  )

     Band symmetry, C_2v (mm2)  point group:

     e(  1 -  1) =    -19.84885  eV     1   --> A_1  D_1  S_1  
     e(  2 -  2) =    -11.66952  eV     1   --> A_1  D_1  S_1  
     e(  3 -  3) =     -7.86721  eV     1   --> B_1  D_3  S_3  
     e(  4 -  4) =     -6.22423  eV     1   --> B_2  D_4  S_4  
     e(  5 -  5) =      2.37392  eV     1   --> B_2  D_4  S_4  
     e(  6 -  6) =      4.58131  eV     1   --> A_1  D_1  S_1  
     e(  7 -  7) =      6.17886  eV     1   --> A_1  D_1  S_1  
     e(  8 -  8) =      6.21204  eV     1   --> B_2  D_4  S_4  
     e(  9 -  9) =      6.61928  eV     1   --> A_1  D_1  S_1  
     e( 10 - 10) =      7.74688  eV     1   --> B_2  D_4  S_4  
     e( 11 - 11) =      8.31003  eV     1   --> A_1  D_1  S_1  
     e( 12 - 12) =     10.42000  eV     1   --> B_2  D_4  S_4  
     e( 13 - 13) =     11.11507  eV     1   --> A_1  D_1  S_1  
     e( 14 - 14) =     12.69341  eV     1   --> A_1  D_1  S_1  
     e( 15 - 15) =     13.32406  eV     1   --> B_2  D_4  S_4  
     e( 16 - 16) =     14.66246  eV     1   --> B_2  D_4  S_4  
     e( 17 - 17) =     14.77630  eV     1   --> A_1  D_1  S_1  
     e( 18 - 18) =     15.17950  eV     1   --> A_1  D_1  S_1  
     e( 19 - 19) =     15.77147  eV     1   --> B_2  D_4  S_4  
     e( 20 - 20) =     15.86889  eV     1   --> B_1  D_3  S_3  

 **************************************************************************

 **************************************************************************

                    xk=(   0.38333,   0.22132,   0.00000  )

     Band symmetry, C_2v (mm2)  point group:

     e(  1 -  1) =    -19.69190  eV     1   --> A_1  D_1  S_1  
     e(  2 -  2) =    -11.96219  eV     1   --> A_1  D_1  S_1  
     e(  3 -  3) =     -7.94514  eV     1   --> B_1  D_3  S_3  
     e(  4 -  4) =     -5.97754  eV     1   --> B_2  D_4  S_4  
     e(  5 -  5) =      2.03846  eV     1   --> B_2  D_4  S_4  
     e(  6 -  6) =      4.83998  eV     1   --> A_1  D_1  S_1  
     e(  7 -  7) =      6.39184  eV     1   --> A_1  D_1  S_1  
     e(  8 -  8) =      6.58158  eV     1   --> B_2  D_4  S_4  
     e(  9 -  9) =      6.91090  eV     1   --> A_1  D_1  S_1  
     e( 10 - 10) =      8.11734  eV     1   --> B_2  D_4  S_4  
     e( 11 - 11) =      8.68458  eV     1   --> A_1  D_1  S_1  
     e( 12 - 12) =     10.75154  eV     1   --> B_2  D_4  S_4  
     e( 13 - 13) =     11.42576  eV     1   --> A_1  D_1  S_1  
     e( 14 - 14) =     12.37823  eV     1   --> A_1  D_1  S_1  
     e( 15 - 15) =     13.14801  eV     1   --> B_2  D_4  S_4  
     e( 16 - 16) =     14.21542  eV     1   --> A_1  D_1  S_1  
     e( 17 - 17) =     14.46793  eV     1   --> B_2  D_4  S_4  
     e( 18 - 18) =     15.16466  eV     1   --> A_1  D_1  S_1  
     e( 19 - 19) =     15.38538  eV     1   --> B_2  D_4  S_4  
     e( 20 - 20) =     16.01815  eV     1   --> A_1  D_1  S_1  

 **************************************************************************

 **************************************************************************

                    xk=(   0.40000,   0.23094,   0.00000  )

     Band symmetry, C_2v (mm2)  point group:

     e(  1 -  1) =    -19.54267  eV     1   --> A_1  D_1  S_1  
     e(  2 -  2) =    -12.22431  eV     1   --> A_1  D_1  S_1  
     e(  3 -  3) =     -8.01963  eV     1   --> B_1  D_3  S_3  
     e(  4 -  4) =     -5.74219  eV     1   --> B_2  D_4  S_4  
     e(  5 -  5) =      1.71302  eV     1   --> B_2  D_4  S_4  
     e(  6 -  6) =      5.06097  eV     1   --> A_1  D_1  S_1  
     e(  7 -  7) =      6.59156  eV     1   --> A_1  D_1  S_1  
     e(  8 -  8) =      6.97067  eV     1   --> B_2  D_4  S_4  
     e(  9 -  9) =      7.28358  eV     1   --> A_1  D_1  S_1  
     e( 10 - 10) =      8.50428  eV     1   --> B_2  D_4  S_4  
     e( 11 - 11) =      9.07885  eV     1   --> A_1  D_1  S_1  
     e( 12 - 12) =     11.07394  eV     1   --> B_2  D_4  S_4  
     e( 13 - 13) =     11.51535  eV     1   --> A_1  D_1  S_1  
     e( 14 - 14) =     12.23378  eV     1   --> A_1  D_1  S_1  
     e( 15 - 15) =     12.83566  eV     1   --> B_2  D_4  S_4  
     e( 16 - 16) =     13.59722  eV     1   --> A_1  D_1  S_1  
     e( 17 - 17) =     14.19371  eV     1   --> B_2  D_4  S_4  
     e( 18 - 18) =     14.95369  eV     1   --> A_1  D_1  S_1  
     e( 19 - 19) =     15.16978  eV     1   --> B_2  D_4  S_4  
     e( 20 - 20) =     15.96650  eV     1   --> A_1  D_1  S_1  

 **************************************************************************

 **************************************************************************

                    xk=(   0.41667,   0.24056,   0.00000  )

     Band symmetry, C_2v (mm2)  point group:

     e(  1 -  1) =    -19.40630  eV     1   --> A_1  D_1  S_1  
     e(  2 -  2) =    -12.46390  eV     1   --> A_1  D_1  S_1  
     e(  3 -  3) =     -8.08715  eV     1   --> B_1  D_3  S_3  
     e(  4 -  4) =     -5.51980  eV     1   --> B_2  D_4  S_4  
     e(  5 -  5) =      1.41106  eV     1   --> B_2  D_4  S_4  
     e(  6 -  6) =      5.23127  eV     1   --> A_1  D_1  S_1  
     e(  7 -  7) =      6.83092  eV     1   --> A_1  D_1  S_1  
     e(  8 -  8) =      7.37711  eV     1   --> B_2  D_4  S_4  
     e(  9 -  9) =      7.69749  eV     1   --> A_1  D_1  S_1  
     e( 10 - 10) =      8.90563  eV     1   --> B_2  D_4  S_4  
     e( 11 - 11) =      9.48795  eV     1   --> A_1  D_1  S_1  
     e( 12 - 12) =     11.19569  eV     1   --> A_1  D_1  S_1  
     e( 13 - 13) =     11.34845  eV     1   --> B_2  D_4  S_4  
     e( 14 - 14) =     12.46640  eV     1   --> A_1  D_1  S_1  
     e( 15 - 15) =     12.48596  eV     1   --> B_2  D_4  S_4  
     e( 16 - 16) =     12.99214  eV     1   --> A_1  D_1  S_1  
     e( 17 - 17) =     13.80668  eV     1   --> B_2  D_4  S_4  
     e( 18 - 18) =     14.51797  eV     1   --> A_1  D_1  S_1  
     e( 19 - 19) =     15.07358  eV     1   --> B_2  D_4  S_4  
     e( 20 - 20) =     16.08871  eV     1   --> A_1  D_1  S_1  

 **************************************************************************

 **************************************************************************

                    xk=(   0.43333,   0.25019,   0.00000  )

     Band symmetry, C_2v (mm2)  point group:

     e(  1 -  1) =    -19.28523  eV     1   --> A_1  D_1  S_1  
     e(  2 -  2) =    -12.65954  eV     1   --> A_1  D_1  S_1  
     e(  3 -  3) =     -8.13864  eV     1   --> B_1  D_3  S_3  
     e(  4 -  4) =     -5.31904  eV     1   --> B_2  D_4  S_4  
     e(  5 -  5) =      1.14139  eV     1   --> B_2  D_4  S_4  
     e(  6 -  6) =      5.35259  eV     1   --> A_1  D_1  S_1  
     e(  7 -  7) =      7.12614  eV     1   --> A_1  D_1  S_1  
     e(  8 -  8) =      7.79850  eV     1   --> B_2  D_4  S_4  
     e(  9 -  9) =      8.13822  eV     1   --> A_1  D_1  S_1  
     e( 10 - 10) =      9.31746  eV     1   --> B_2  D_4  S_4  
     e( 11 - 11) =      9.90041  eV     1   --> A_1  D_1  S_1  
     e( 12 - 12) =     10.76395  eV     1   --> A_1  D_1  S_1  
     e( 13 - 13) =     11.43114  eV     1   --> B_2  D_4  S_4  
     e( 14 - 14) =     12.27001  eV     1   --> B_2  D_4  S_4  
     e( 15 - 15) =     12.35402  eV     1   --> A_1  D_1  S_1  
     e( 16 - 16) =     12.86716  eV     1   --> A_1  D_1  S_1  
     e( 17 - 17) =     13.38389  eV     1   --> B_2  D_4  S_4  
     e( 18 - 18) =     14.02322  eV     1   --> A_1  D_1  S_1  
     e( 19 - 19) =     14.97337  eV     1   --> B_2  D_4  S_4  
     e( 20 - 20) =     16.14665  eV     1   --> A_1  D_1  S_1  

 **************************************************************************

 **************************************************************************

                    xk=(   0.45000,   0.25981,   0.00000  )

     Band symmetry, C_2v (mm2)  point group:

     e(  1 -  1) =    -19.18613  eV     1   --> A_1  D_1  S_1  
     e(  2 -  2) =    -12.82373  eV     1   --> A_1  D_1  S_1  
     e(  3 -  3) =     -8.18085  eV     1   --> B_1  D_3  S_3  
     e(  4 -  4) =     -5.15287  eV     1   --> B_2  D_4  S_4  
     e(  5 -  5) =      0.91337  eV     1   --> B_2  D_4  S_4  
     e(  6 -  6) =      5.42989  eV     1   --> A_1  D_1  S_1  
     e(  7 -  7) =      7.47013  eV     1   --> A_1  D_1  S_1  
     e(  8 -  8) =      8.23092  eV     1   --> B_2  D_4  S_4  
     e(  9 -  9) =      8.59958  eV     1   --> A_1  D_1  S_1  
     e( 10 - 10) =      9.72933  eV     1   --> B_2  D_4  S_4  
     e( 11 - 11) =     10.11219  eV     1   --> A_1  D_1  S_1  
     e( 12 - 12) =     10.52127  eV     1   --> A_1  D_1  S_1  
     e( 13 - 13) =     11.18076  eV     1   --> B_2  D_4  S_4  
     e( 14 - 14) =     11.77838  eV     1   --> A_1  D_1  S_1  
     e( 15 - 15) =     12.28306  eV     1   --> B_2  D_4  S_4  
     e( 16 - 16) =     13.03587  eV     1   --> B_2  D_4  S_4  
     e( 17 - 17) =     13.16357  eV     1   --> A_1  D_1  S_1  
     e( 18 - 18) =     13.59990  eV     1   --> A_1  D_1  S_1  
     e( 19 - 19) =     14.81595  eV     1   --> B_2  D_4  S_4  
     e( 20 - 20) =     15.97044  eV     1   --> A_1  D_1  S_1  

 **************************************************************************

 **************************************************************************

                    xk=(   0.46667,   0.26943,   0.00000  )

     Band symmetry, C_2v (mm2)  point group:

     e(  1 -  1) =    -19.11176  eV     1   --> A_1  D_1  S_1  
     e(  2 -  2) =    -12.94434  eV     1   --> A_1  D_1  S_1  
     e(  3 -  3) =     -8.21095  eV     1   --> B_1  D_3  S_3  
     e(  4 -  4) =     -5.02640  eV     1   --> B_2  D_4  S_4  
     e(  5 -  5) =      0.74087  eV     1   --> B_2  D_4  S_4  
     e(  6 -  6) =      5.47765  eV     1   --> A_1  D_1  S_1  
     e(  7 -  7) =      7.85046  eV     1   --> A_1  D_1  S_1  
     e(  8 -  8) =      8.66811  eV     1   --> B_2  D_4  S_4  
     e(  9 -  9) =      9.07546  eV     1   --> A_1  D_1  S_1  
     e( 10 - 10) =      9.73517  eV     1   --> A_1  D_1  S_1  
     e( 11 - 11) =     10.09558  eV     1   --> B_2  D_4  S_4  
     e( 12 - 12) =     10.83196  eV     1   --> B_2  D_4  S_4  
     e( 13 - 13) =     10.88398  eV     1   --> A_1  D_1  S_1  
     e( 14 - 14) =     11.21744  eV     1   --> A_1  D_1  S_1  
     e( 15 - 15) =     12.12213  eV     1   --> B_2  D_4  S_4  
     e( 16 - 16) =     12.87711  eV     1   --> A_1  D_1  S_1  
     e( 17 - 17) =     12.99647  eV     1   --> B_2  D_4  S_4  
     e( 18 - 18) =     13.78280  eV     1   --> A_1  D_1  S_1  
     e( 19 - 19) =     14.61229  eV     1   --> B_2  D_4  S_4  
     e( 20 - 20) =     15.62994  eV     1   --> A_1  D_1  S_1  

 **************************************************************************

 **************************************************************************

                    xk=(   0.48333,   0.27905,   0.00000  )

     Band symmetry, C_2v (mm2)  point group:

     e(  1 -  1) =    -19.06643  eV     1   --> A_1  D_1  S_1  
     e(  2 -  2) =    -13.02234  eV     1   --> A_1  D_1  S_1  
     e(  3 -  3) =     -8.23937  eV     1   --> B_1  D_3  S_3  
     e(  4 -  4) =     -4.93932  eV     1   --> B_2  D_4  S_4  
     e(  5 -  5) =      0.63350  eV     1   --> B_2  D_4  S_4  
     e(  6 -  6) =      5.50219  eV     1   --> A_1  D_1  S_1  
     e(  7 -  7) =      8.24070  eV     1   --> A_1  D_1  S_1  
     e(  8 -  8) =      9.08746  eV     1   --> B_2  D_4  S_4  
     e(  9 -  9) =      9.26124  eV     1   --> A_1  D_1  S_1  
     e( 10 - 10) =      9.61217  eV     1   --> A_1  D_1  S_1  
     e( 11 - 11) =     10.12559  eV     1   --> B_2  D_4  S_4  
     e( 12 - 12) =     10.64766  eV     1   --> A_1  D_1  S_1  
     e( 13 - 13) =     10.79641  eV     1   --> B_2  D_4  S_4  
     e( 14 - 14) =     11.36177  eV     1   --> A_1  D_1  S_1  
     e( 15 - 15) =     11.75882  eV     1   --> B_2  D_4  S_4  
     e( 16 - 16) =     12.38638  eV     1   --> A_1  D_1  S_1  
     e( 17 - 17) =     13.16954  eV     1   --> B_2  D_4  S_4  
     e( 18 - 18) =     14.16697  eV     1   --> A_1  D_1  S_1  
     e( 19 - 19) =     14.41160  eV     1   --> B_2  D_4  S_4  
     e( 20 - 20) =     15.24440  eV     1   --> A_1  D_1  S_1  

 **************************************************************************

 **************************************************************************

                    xk=(   0.50000,   0.28868,   0.00000  )

     Band symmetry, C_2v (mm2)  point group:

     e(  1 -  1) =    -19.05146  eV     1   --> A_1  D_1  S_1  
     e(  2 -  2) =    -13.05036  eV     1   --> A_1  D_1  S_1  
     e(  3 -  3) =     -8.24363  eV     1   --> B_1  D_3  S_3  
     e(  4 -  4) =     -4.91314  eV     1   --> B_2  D_4  S_4  
     e(  5 -  5) =      0.59643  eV     1   --> B_2  D_4  S_4  
     e(  6 -  6) =      5.50972  eV     1   --> A_1  D_1  S_1  
     e(  7 -  7) =      8.49705  eV     1   --> A_1  D_1  S_1  
     e(  8 -  8) =      9.00238  eV     1   --> A_1  D_1  S_1  
     e(  9 -  9) =      9.33623  eV     1   --> B_2  D_4  S_4  
     e( 10 - 10) =      9.93444  eV     1   --> B_2  D_4  S_4  
     e( 11 - 11) =     10.08429  eV     1   --> A_1  D_1  S_1  
     e( 12 - 12) =     10.14538  eV     1   --> A_1  D_1  S_1  
     e( 13 - 13) =     10.99226  eV     1   --> B_2  D_4  S_4  
     e( 14 - 14) =     11.50816  eV     1   --> B_2  D_4  S_4  
     e( 15 - 15) =     11.73681  eV     1   --> A_1  D_1  S_1  
     e( 16 - 16) =     11.99691  eV     1   --> A_1  D_1  S_1  
     e( 17 - 17) =     13.26642  eV     1   --> B_2  D_4  S_4  
     e( 18 - 18) =     14.31648  eV     1   --> B_2  D_4  S_4  
     e( 19 - 19) =     14.40603  eV     1   --> A_1  D_1  S_1  
     e( 20 - 20) =     15.00547  eV     1   --> A_1  D_1  S_1  

 **************************************************************************

 **************************************************************************

                    xk=(   0.49444,   0.29830,   0.00000  )

     point group C_s (m)    
     there are  2 classes
     the character table:

       E     s    
A'     1.00  1.00
A''    1.00 -1.00

     the symmetry operations in each class and the name of the first element:

     E        1
                                                                 
     s        2
                                                                 

     Band symmetry, C_s (m)     point group:

     e(  1 -  1) =    -19.04894  eV     1   --> A'             
     e(  2 -  2) =    -13.04369  eV     1   --> A'             
     e(  3 -  3) =     -8.24217  eV     1   --> A'             
     e(  4 -  4) =     -4.90789  eV     1   --> A''            
     e(  5 -  5) =      0.59783  eV     1   --> A''            
     e(  6 -  6) =      5.52110  eV     1   --> A'             
     e(  7 -  7) =      8.50122  eV     1   --> A'             
     e(  8 -  8) =      9.00590  eV     1   --> A'             
     e(  9 -  9) =      9.33746  eV     1   --> A''            
     e( 10 - 10) =      9.93696  eV     1   --> A''            
     e( 11 - 11) =     10.08740  eV     1   --> A'             
     e( 12 - 12) =     10.14839  eV     1   --> A'             
     e( 13 - 13) =     10.99365  eV     1   --> A''            
     e( 14 - 14) =     11.51058  eV     1   --> A''            
     e( 15 - 15) =     11.74038  eV     1   --> A'             
     e( 16 - 16) =     11.99988  eV     1   --> A'             
     e( 17 - 17) =     13.26405  eV     1   --> A''            
     e( 18 - 18) =     14.31847  eV     1   --> A''            
     e( 19 - 19) =     14.41007  eV     1   --> A'             
     e( 20 - 20) =     15.00821  eV     1   --> A'             

 **************************************************************************

 **************************************************************************

                    xk=(   0.48889,   0.30792,   0.00000  )

     Band symmetry, C_s (m)     point group:

     e(  1 -  1) =    -19.04563  eV     1   --> A'             
     e(  2 -  2) =    -13.04101  eV     1   --> A'             
     e(  3 -  3) =     -8.26834  eV     1   --> A'             
     e(  4 -  4) =     -4.90261  eV     1   --> A''            
     e(  5 -  5) =      0.59917  eV     1   --> A''            
     e(  6 -  6) =      5.55338  eV     1   --> A'             
     e(  7 -  7) =      8.50771  eV     1   --> A'             
     e(  8 -  8) =      9.01608  eV     1   --> A'             
     e(  9 -  9) =      9.33895  eV     1   --> A''            
     e( 10 - 10) =      9.94438  eV     1   --> A''            
     e( 11 - 11) =     10.09603  eV     1   --> A'             
     e( 12 - 12) =     10.15738  eV     1   --> A'             
     e( 13 - 13) =     10.99674  eV     1   --> A''            
     e( 14 - 14) =     11.51769  eV     1   --> A''            
     e( 15 - 15) =     11.74750  eV     1   --> A'             
     e( 16 - 16) =     12.00861  eV     1   --> A'             
     e( 17 - 17) =     13.25551  eV     1   --> A''            
     e( 18 - 18) =     14.32421  eV     1   --> A''            
     e( 19 - 19) =     14.41386  eV     1   --> A'             
     e( 20 - 20) =     15.01613  eV     1   --> A'             

 **************************************************************************

 **************************************************************************

                    xk=(   0.48333,   0.31754,   0.00000  )

     Band symmetry, C_s (m)     point group:

     e(  1 -  1) =    -19.03957  eV     1   --> A'             
     e(  2 -  2) =    -13.03409  eV     1   --> A'             
     e(  3 -  3) =     -8.30559  eV     1   --> A'             
     e(  4 -  4) =     -4.89326  eV     1   --> A''            
     e(  5 -  5) =      0.60172  eV     1   --> A''            
     e(  6 -  6) =      5.60730  eV     1   --> A'             
     e(  7 -  7) =      8.51973  eV     1   --> A'             
     e(  8 -  8) =      9.03324  eV     1   --> A'             
     e(  9 -  9) =      9.34132  eV     1   --> A''            
     e( 10 - 10) =      9.95675  eV     1   --> A''            
     e( 11 - 11) =     10.11056  eV     1   --> A'             
     e( 12 - 12) =     10.17237  eV     1   --> A'             
     e( 13 - 13) =     11.00188  eV     1   --> A''            
     e( 14 - 14) =     11.52957  eV     1   --> A''            
     e( 15 - 15) =     11.76015  eV     1   --> A'             
     e( 16 - 16) =     12.02319  eV     1   --> A'             
     e( 17 - 17) =     13.24134  eV     1   --> A''            
     e( 18 - 18) =     14.33387  eV     1   --> A''            
     e( 19 - 19) =     14.42208  eV     1   --> A'             
     e( 20 - 20) =     15.02934  eV     1   --> A'             

 **************************************************************************

 **************************************************************************

                    xk=(   0.47778,   0.32717,   0.00000  )

     Band symmetry, C_s (m)     point group:

     e(  1 -  1) =    -19.03078  eV     1   --> A'             
     e(  2 -  2) =    -13.02013  eV     1   --> A'             
     e(  3 -  3) =     -8.35133  eV     1   --> A'             
     e(  4 -  4) =     -4.88468  eV     1   --> A''            
     e(  5 -  5) =      0.60401  eV     1   --> A''            
     e(  6 -  6) =      5.68221  eV     1   --> A'             
     e(  7 -  7) =      8.53812  eV     1   --> A'             
     e(  8 -  8) =      9.05744  eV     1   --> A'             
     e(  9 -  9) =      9.34288  eV     1   --> A''            
     e( 10 - 10) =      9.97402  eV     1   --> A''            
     e( 11 - 11) =     10.13109  eV     1   --> A'             
     e( 12 - 12) =     10.19337  eV     1   --> A'             
     e( 13 - 13) =     11.00829  eV     1   --> A''            
     e( 14 - 14) =     11.54619  eV     1   --> A''            
     e( 15 - 15) =     11.77882  eV     1   --> A'             
     e( 16 - 16) =     12.04362  eV     1   --> A'             
     e( 17 - 17) =     13.22068  eV     1   --> A''            
     e( 18 - 18) =     14.34746  eV     1   --> A''            
     e( 19 - 19) =     14.43593  eV     1   --> A'             
     e( 20 - 20) =     15.04785  eV     1   --> A'             

 **************************************************************************

 **************************************************************************

                    xk=(   0.47222,   0.33679,   0.00000  )

     Band symmetry, C_s (m)     point group:

     e(  1 -  1) =    -19.02044  eV     1   --> A'             
     e(  2 -  2) =    -13.00770  eV     1   --> A'             
     e(  3 -  3) =     -8.41960  eV     1   --> A'             
     e(  4 -  4) =     -4.87007  eV     1   --> A''            
     e(  5 -  5) =      0.60800  eV     1   --> A''            
     e(  6 -  6) =      5.77647  eV     1   --> A'             
     e(  7 -  7) =      8.55974  eV     1   --> A'             
     e(  8 -  8) =      9.08856  eV     1   --> A'             
     e(  9 -  9) =      9.34465  eV     1   --> A''            
     e( 10 - 10) =      9.99629  eV     1   --> A''            
     e( 11 - 11) =     10.15724  eV     1   --> A'             
     e( 12 - 12) =     10.22036  eV     1   --> A'             
     e( 13 - 13) =     11.01658  eV     1   --> A''            
     e( 14 - 14) =     11.56773  eV     1   --> A''            
     e( 15 - 15) =     11.80151  eV     1   --> A'             
     e( 16 - 16) =     12.06985  eV     1   --> A'             
     e( 17 - 17) =     13.19492  eV     1   --> A''            
     e( 18 - 18) =     14.36536  eV     1   --> A''            
     e( 19 - 19) =     14.45046  eV     1   --> A'             
     e( 20 - 20) =     15.07147  eV     1   --> A'             

 **************************************************************************

 **************************************************************************

                    xk=(   0.46667,   0.34641,   0.00000  )

     Band symmetry, C_s (m)     point group:

     e(  1 -  1) =    -19.00773  eV     1   --> A'             
     e(  2 -  2) =    -12.99308  eV     1   --> A'             
     e(  3 -  3) =     -8.50352  eV     1   --> A'             
     e(  4 -  4) =     -4.85078  eV     1   --> A''            
     e(  5 -  5) =      0.61238  eV     1   --> A''            
     e(  6 -  6) =      5.88932  eV     1   --> A'             
     e(  7 -  7) =      8.58587  eV     1   --> A'             
     e(  8 -  8) =      9.12678  eV     1   --> A'             
     e(  9 -  9) =      9.34493  eV     1   --> A''            
     e( 10 - 10) =     10.02356  eV     1   --> A''            
     e( 11 - 11) =     10.18917  eV     1   --> A'             
     e( 12 - 12) =     10.25335  eV     1   --> A'             
     e( 13 - 13) =     11.02612  eV     1   --> A''            
     e( 14 - 14) =     11.59425  eV     1   --> A''            
     e( 15 - 15) =     11.82902  eV     1   --> A'             
     e( 16 - 16) =     12.10188  eV     1   --> A'             
     e( 17 - 17) =     13.16402  eV     1   --> A''            
     e( 18 - 18) =     14.38781  eV     1   --> A''            
     e( 19 - 19) =     14.46751  eV     1   --> A'             
     e( 20 - 20) =     15.10017  eV     1   --> A'             

 **************************************************************************

 **************************************************************************

                    xk=(   0.46111,   0.35603,   0.00000  )

     Band symmetry, C_s (m)     point group:

     e(  1 -  1) =    -18.99199  eV     1   --> A'             
     e(  2 -  2) =    -12.97717  eV     1   --> A'             
     e(  3 -  3) =     -8.58476  eV     1   --> A'             
     e(  4 -  4) =     -4.82363  eV     1   --> A''            
     e(  5 -  5) =      0.61839  eV     1   --> A''            
     e(  6 -  6) =      6.01967  eV     1   --> A'             
     e(  7 -  7) =      8.61642  eV     1   --> A'             
     e(  8 -  8) =      9.17231  eV     1   --> A'             
     e(  9 -  9) =      9.34358  eV     1   --> A''            
     e( 10 - 10) =     10.05591  eV     1   --> A''            
     e( 11 - 11) =     10.22686  eV     1   --> A'             
     e( 12 - 12) =     10.29237  eV     1   --> A'             
     e( 13 - 13) =     11.03717  eV     1   --> A''            
     e( 14 - 14) =     11.62591  eV     1   --> A''            
     e( 15 - 15) =     11.86127  eV     1   --> A'             
     e( 16 - 16) =     12.13972  eV     1   --> A'             
     e( 17 - 17) =     13.12964  eV     1   --> A''            
     e( 18 - 18) =     14.41518  eV     1   --> A''            
     e( 19 - 19) =     14.48700  eV     1   --> A'             
     e( 20 - 20) =     15.13391  eV     1   --> A'             

 **************************************************************************

 **************************************************************************

                    xk=(   0.45556,   0.36566,   0.00000  )

     Band symmetry, C_s (m)     point group:

     e(  1 -  1) =    -18.97330  eV     1   --> A'             
     e(  2 -  2) =    -12.95107  eV     1   --> A'             
     e(  3 -  3) =     -8.68322  eV     1   --> A'             
     e(  4 -  4) =     -4.79373  eV     1   --> A''            
     e(  5 -  5) =      0.62421  eV     1   --> A''            
     e(  6 -  6) =      6.16677  eV     1   --> A'             
     e(  7 -  7) =      8.65400  eV     1   --> A'             
     e(  8 -  8) =      9.22534  eV     1   --> A'             
     e(  9 -  9) =      9.33776  eV     1   --> A''            
     e( 10 - 10) =     10.09335  eV     1   --> A''            
     e( 11 - 11) =     10.27060  eV     1   --> A'             
     e( 12 - 12) =     10.33742  eV     1   --> A'             
     e( 13 - 13) =     11.04912  eV     1   --> A''            
     e( 14 - 14) =     11.66279  eV     1   --> A''            
     e( 15 - 15) =     11.89973  eV     1   --> A'             
     e( 16 - 16) =     12.18341  eV     1   --> A'             
     e( 17 - 17) =     13.09290  eV     1   --> A''            
     e( 18 - 18) =     14.44762  eV     1   --> A''            
     e( 19 - 19) =     14.51196  eV     1   --> A'             
     e( 20 - 20) =     15.17261  eV     1   --> A'             

 **************************************************************************

 **************************************************************************

                    xk=(   0.45000,   0.37528,   0.00000  )

     Band symmetry, C_s (m)     point group:

     e(  1 -  1) =    -18.95394  eV     1   --> A'             
     e(  2 -  2) =    -12.92548  eV     1   --> A'             
     e(  3 -  3) =     -8.79505  eV     1   --> A'             
     e(  4 -  4) =     -4.76179  eV     1   --> A''            
     e(  5 -  5) =      0.63053  eV     1   --> A''            
     e(  6 -  6) =      6.32919  eV     1   --> A'             
     e(  7 -  7) =      8.69561  eV     1   --> A'             
     e(  8 -  8) =      9.28603  eV     1   --> A'             
     e(  9 -  9) =      9.32573  eV     1   --> A''            
     e( 10 - 10) =     10.13596  eV     1   --> A''            
     e( 11 - 11) =     10.32006  eV     1   --> A'             
     e( 12 - 12) =     10.38851  eV     1   --> A'             
     e( 13 - 13) =     11.06214  eV     1   --> A''            
     e( 14 - 14) =     11.70503  eV     1   --> A''            
     e( 15 - 15) =     11.94264  eV     1   --> A'             
     e( 16 - 16) =     12.23287  eV     1   --> A'             
     e( 17 - 17) =     13.05623  eV     1   --> A''            
     e( 18 - 18) =     14.48536  eV     1   --> A''            
     e( 19 - 19) =     14.53851  eV     1   --> A'             
     e( 20 - 20) =     15.21598  eV     1   --> A'             

 **************************************************************************

 **************************************************************************

                    xk=(   0.44444,   0.38490,   0.00000  )

     Band symmetry, C_s (m)     point group:

     e(  1 -  1) =    -18.93263  eV     1   --> A'             
     e(  2 -  2) =    -12.89967  eV     1   --> A'             
     e(  3 -  3) =     -8.91433  eV     1   --> A'             
     e(  4 -  4) =     -4.72823  eV     1   --> A''            
     e(  5 -  5) =      0.63633  eV     1   --> A''            
     e(  6 -  6) =      6.50475  eV     1   --> A'             
     e(  7 -  7) =      8.74116  eV     1   --> A'             
     e(  8 -  8) =      9.30600  eV     1   --> A''            
     e(  9 -  9) =      9.35455  eV     1   --> A'             
     e( 10 - 10) =     10.18382  eV     1   --> A''            
     e( 11 - 11) =     10.37521  eV     1   --> A'             
     e( 12 - 12) =     10.44562  eV     1   --> A'             
     e( 13 - 13) =     11.07698  eV     1   --> A''            
     e( 14 - 14) =     11.75275  eV     1   --> A''            
     e( 15 - 15) =     11.98983  eV     1   --> A'             
     e( 16 - 16) =     12.28804  eV     1   --> A'             
     e( 17 - 17) =     13.02283  eV     1   --> A''            
     e( 18 - 18) =     14.52854  eV     1   --> A''            
     e( 19 - 19) =     14.56608  eV     1   --> A'             
     e( 20 - 20) =     15.26372  eV     1   --> A'             

 **************************************************************************

 **************************************************************************

                    xk=(   0.43889,   0.39452,   0.00000  )

     Band symmetry, C_s (m)     point group:

     e(  1 -  1) =    -18.90957  eV     1   --> A'             
     e(  2 -  2) =    -12.87152  eV     1   --> A'             
     e(  3 -  3) =     -9.03890  eV     1   --> A'             
     e(  4 -  4) =     -4.69349  eV     1   --> A''            
     e(  5 -  5) =      0.63973  eV     1   --> A''            
     e(  6 -  6) =      6.69118  eV     1   --> A'             
     e(  7 -  7) =      8.79139  eV     1   --> A'             
     e(  8 -  8) =      9.27545  eV     1   --> A''            
     e(  9 -  9) =      9.43120  eV     1   --> A'             
     e( 10 - 10) =     10.23711  eV     1   --> A''            
     e( 11 - 11) =     10.43614  eV     1   --> A'             
     e( 12 - 12) =     10.50879  eV     1   --> A'             
     e( 13 - 13) =     11.09417  eV     1   --> A''            
     e( 14 - 14) =     11.80621  eV     1   --> A''            
     e( 15 - 15) =     12.04166  eV     1   --> A'             
     e( 16 - 16) =     12.34894  eV     1   --> A'             
     e( 17 - 17) =     12.99529  eV     1   --> A''            
     e( 18 - 18) =     14.57754  eV     1   --> A''            
     e( 19 - 19) =     14.59541  eV     1   --> A'             
     e( 20 - 20) =     15.31562  eV     1   --> A'             

 **************************************************************************

 **************************************************************************

                    xk=(   0.43333,   0.40415,   0.00000  )

     Band symmetry, C_s (m)     point group:

     e(  1 -  1) =    -18.88393  eV     1   --> A'             
     e(  2 -  2) =    -12.83560  eV     1   --> A'             
     e(  3 -  3) =     -9.15853  eV     1   --> A'             
     e(  4 -  4) =     -4.65140  eV     1   --> A''            
     e(  5 -  5) =      0.64576  eV     1   --> A''            
     e(  6 -  6) =      6.88945  eV     1   --> A'             
     e(  7 -  7) =      8.84852  eV     1   --> A'             
     e(  8 -  8) =      9.23609  eV     1   --> A''            
     e(  9 -  9) =      9.51690  eV     1   --> A'             
     e( 10 - 10) =     10.29596  eV     1   --> A''            
     e( 11 - 11) =     10.50308  eV     1   --> A'             
     e( 12 - 12) =     10.57808  eV     1   --> A'             
     e( 13 - 13) =     11.11588  eV     1   --> A''            
     e( 14 - 14) =     11.86550  eV     1   --> A''            
     e( 15 - 15) =     12.09948  eV     1   --> A'             
     e( 16 - 16) =     12.41560  eV     1   --> A'             
     e( 17 - 17) =     12.97694  eV     1   --> A''            
     e( 18 - 18) =     14.62935  eV     1   --> A'             
     e( 19 - 19) =     14.63236  eV     1   --> A''            
     e( 20 - 20) =     15.37116  eV     1   --> A'             

 **************************************************************************

 **************************************************************************

                    xk=(   0.42778,   0.41377,   0.00000  )

     Band symmetry, C_s (m)     point group:

     e(  1 -  1) =    -18.85818  eV     1   --> A'             
     e(  2 -  2) =    -12.80213  eV     1   --> A'             
     e(  3 -  3) =     -9.30154  eV     1   --> A'             
     e(  4 -  4) =     -4.61087  eV     1   --> A''            
     e(  5 -  5) =      0.64876  eV     1   --> A''            
     e(  6 -  6) =      7.09045  eV     1   --> A'             
     e(  7 -  7) =      8.90861  eV     1   --> A'             
     e(  8 -  8) =      9.18341  eV     1   --> A''            
     e(  9 -  9) =      9.61086  eV     1   --> A'             
     e( 10 - 10) =     10.36050  eV     1   --> A''            
     e( 11 - 11) =     10.57557  eV     1   --> A'             
     e( 12 - 12) =     10.65342  eV     1   --> A'             
     e( 13 - 13) =     11.14277  eV     1   --> A''            
     e( 14 - 14) =     11.93073  eV     1   --> A''            
     e( 15 - 15) =     12.16057  eV     1   --> A'             
     e( 16 - 16) =     12.48784  eV     1   --> A'             
     e( 17 - 17) =     12.96936  eV     1   --> A''            
     e( 18 - 18) =     14.66119  eV     1   --> A'             
     e( 19 - 19) =     14.69291  eV     1   --> A''            
     e( 20 - 20) =     15.42940  eV     1   --> A'             

 **************************************************************************

 **************************************************************************

                    xk=(   0.42222,   0.42339,   0.00000  )

     Band symmetry, C_s (m)     point group:

     e(  1 -  1) =    -18.83188  eV     1   --> A'             
     e(  2 -  2) =    -12.76816  eV     1   --> A'             
     e(  3 -  3) =     -9.44770  eV     1   --> A'             
     e(  4 -  4) =     -4.57213  eV     1   --> A''            
     e(  5 -  5) =      0.65073  eV     1   --> A''            
     e(  6 -  6) =      7.29731  eV     1   --> A'             
     e(  7 -  7) =      8.97324  eV     1   --> A'             
     e(  8 -  8) =      9.11860  eV     1   --> A''            
     e(  9 -  9) =      9.71426  eV     1   --> A'             
     e( 10 - 10) =     10.43076  eV     1   --> A''            
     e( 11 - 11) =     10.65378  eV     1   --> A'             
     e( 12 - 12) =     10.73488  eV     1   --> A'             
     e( 13 - 13) =     11.17664  eV     1   --> A''            
     e( 14 - 14) =     12.00184  eV     1   --> A''            
     e( 15 - 15) =     12.22581  eV     1   --> A'             
     e( 16 - 16) =     12.56562  eV     1   --> A'             
     e( 17 - 17) =     12.97405  eV     1   --> A''            
     e( 18 - 18) =     14.69230  eV     1   --> A'             
     e( 19 - 19) =     14.75882  eV     1   --> A''            
     e( 20 - 20) =     15.48870  eV     1   -->   ?

 **************************************************************************

 **************************************************************************

                    xk=(   0.41667,   0.43301,   0.00000  )

     Band symmetry, C_s (m)     point group:

     e(  1 -  1) =    -18.80293  eV     1   --> A'             
     e(  2 -  2) =    -12.72953  eV     1   --> A'             
     e(  3 -  3) =     -9.58987  eV     1   --> A'             
     e(  4 -  4) =     -4.52270  eV     1   --> A''            
     e(  5 -  5) =      0.65322  eV     1   --> A''            
     e(  6 -  6) =      7.50704  eV     1   --> A'             
     e(  7 -  7) =      9.04380  eV     1   --> A'             
     e(  8 -  8) =      9.04425  eV     1   --> A''            
     e(  9 -  9) =      9.82730  eV     1   --> A'             
     e( 10 - 10) =     10.50710  eV     1   --> A''            
     e( 11 - 11) =     10.73784  eV     1   --> A'             
     e( 12 - 12) =     10.82248  eV     1   --> A'             
     e( 13 - 13) =     11.21881  eV     1   --> A''            
     e( 14 - 14) =     12.07923  eV     1   --> A''            
     e( 15 - 15) =     12.29584  eV     1   --> A'             
     e( 16 - 16) =     12.64893  eV     1   --> A'             
     e( 17 - 17) =     12.99159  eV     1   --> A''            
     e( 18 - 18) =     14.72373  eV     1   --> A'             
     e( 19 - 19) =     14.83075  eV     1   --> A''            
     e( 20 - 20) =     15.54734  eV     1   --> A'             

 **************************************************************************

 **************************************************************************

                    xk=(   0.41111,   0.44264,   0.00000  )

     Band symmetry, C_s (m)     point group:

     e(  1 -  1) =    -18.77428  eV     1   --> A'             
     e(  2 -  2) =    -12.69343  eV     1   --> A'             
     e(  3 -  3) =     -9.73762  eV     1   --> A'             
     e(  4 -  4) =     -4.47454  eV     1   --> A''            
     e(  5 -  5) =      0.65230  eV     1   --> A''            
     e(  6 -  6) =      7.71695  eV     1   --> A'             
     e(  7 -  7) =      8.95951  eV     1   --> A''            
     e(  8 -  8) =      9.11827  eV     1   --> A'             
     e(  9 -  9) =      9.95025  eV     1   --> A'             
     e( 10 - 10) =     10.58948  eV     1   --> A''            
     e( 11 - 11) =     10.82748  eV     1   --> A'             
     e( 12 - 12) =     10.91622  eV     1   --> A'             
     e( 13 - 13) =     11.26993  eV     1   --> A''            
     e( 14 - 14) =     12.16273  eV     1   --> A''            
     e( 15 - 15) =     12.36908  eV     1   --> A'             
     e( 16 - 16) =     12.73755  eV     1   --> A'             
     e( 17 - 17) =     13.02181  eV     1   --> A''            
     e( 18 - 18) =     14.75092  eV     1   --> A'             
     e( 19 - 19) =     14.90773  eV     1   --> A''            
     e( 20 - 20) =     15.59971  eV     1   --> A'             

 **************************************************************************

 **************************************************************************

                    xk=(   0.40556,   0.45226,   0.00000  )

     Band symmetry, C_s (m)     point group:

     e(  1 -  1) =    -18.74387  eV     1   --> A'             
     e(  2 -  2) =    -12.65043  eV     1   --> A'             
     e(  3 -  3) =     -9.87977  eV     1   --> A'             
     e(  4 -  4) =     -4.42427  eV     1   --> A''            
     e(  5 -  5) =      0.64953  eV     1   --> A''            
     e(  6 -  6) =      7.92613  eV     1   --> A'             
     e(  7 -  7) =      8.86742  eV     1   --> A''            
     e(  8 -  8) =      9.20032  eV     1   --> A'             
     e(  9 -  9) =     10.08380  eV     1   --> A'             
     e( 10 - 10) =     10.67797  eV     1   --> A''            
     e( 11 - 11) =     10.92307  eV     1   --> A'             
     e( 12 - 12) =     11.01619  eV     1   --> A'             
     e( 13 - 13) =     11.33046  eV     1   --> A''            
     e( 14 - 14) =     12.25232  eV     1   --> A''            
     e( 15 - 15) =     12.44753  eV     1   --> A'             
     e( 16 - 16) =     12.83144  eV     1   --> A'             
     e( 17 - 17) =     13.06415  eV     1   --> A''            
     e( 18 - 18) =     14.77560  eV     1   --> A'             
     e( 19 - 19) =     14.98931  eV     1   --> A''            
     e( 20 - 20) =     15.63282  eV     1   --> A'             

 **************************************************************************

 **************************************************************************

                    xk=(   0.40000,   0.46188,   0.00000  )

     Band symmetry, C_s (m)     point group:

     e(  1 -  1) =    -18.71348  eV     1   --> A'             
     e(  2 -  2) =    -12.60831  eV     1   --> A'             
     e(  3 -  3) =    -10.02143  eV     1   --> A'             
     e(  4 -  4) =     -4.37524  eV     1   --> A''            
     e(  5 -  5) =      0.64308  eV     1   --> A''            
     e(  6 -  6) =      8.12721  eV     1   --> A'             
     e(  7 -  7) =      8.76982  eV     1   --> A''            
     e(  8 -  8) =      9.28738  eV     1   --> A'             
     e(  9 -  9) =     10.22637  eV     1   --> A'             
     e( 10 - 10) =     10.77258  eV     1   --> A''            
     e( 11 - 11) =     11.02428  eV     1   --> A'             
     e( 12 - 12) =     11.12224  eV     1   --> A'             
     e( 13 - 13) =     11.40047  eV     1   --> A''            
     e( 14 - 14) =     12.34796  eV     1   --> A''            
     e( 15 - 15) =     12.52916  eV     1   --> A'             
     e( 16 - 16) =     12.93026  eV     1   --> A'             
     e( 17 - 17) =     13.11770  eV     1   --> A''            
     e( 18 - 18) =     14.78987  eV     1   --> A'             
     e( 19 - 19) =     15.07421  eV     1   --> A''            
     e( 20 - 20) =     15.60541  eV     1   --> A'             

 **************************************************************************

 **************************************************************************

                    xk=(   0.39444,   0.47150,   0.00000  )

     Band symmetry, C_s (m)     point group:

[...]
     e( 19 - 19) =     18.21828  eV     1   --> A''            
     e( 20 - 20) =     19.63128  eV     1   --> A'             

 **************************************************************************

 **************************************************************************

                    xk=(   0.00000,   0.00000,   0.07143  )

     point group D_3h (-62m)
     there are  6 classes
     the character table:

       E     2C3   3C2   s_h   2S3   3s_v 
A'_1   1.00  1.00  1.00  1.00  1.00  1.00
A'_2   1.00  1.00 -1.00  1.00  1.00 -1.00
E'     2.00 -1.00  0.00  2.00 -1.00  0.00
A''1   1.00  1.00  1.00 -1.00 -1.00 -1.00
A''2   1.00  1.00 -1.00 -1.00 -1.00  1.00
E''    2.00 -1.00  0.00 -2.00  1.00  0.00

     the symmetry operations in each class and the name of the first element:

     E        1
                                                                 
     2C3      3    4
                                                                 
     3C2      2    6    5
                                                                 
     s_h      7
                                                                 
     2S3      9   10
                                                                 
     3s_v     8   11   12
                                                                 

     Band symmetry, D_3h (-62m) point group:

     e(  1 -  1) =    -22.11663  eV     1   --> A'_1           
     e(  2 -  2) =     -9.45719  eV     1   --> A''2           
     e(  3 -  4) =     -5.32069  eV     2   --> E'             
     e(  5 -  5) =      0.65929  eV     1   --> A'_1           
     e(  6 -  6) =      1.67309  eV     1   --> A''2           
     e(  7 -  7) =      2.43399  eV     1   --> A''2           
     e(  8 -  8) =      2.78292  eV     1   --> A'_1           
     e(  9 -  9) =      4.59521  eV     1   --> A''2           
     e( 10 - 10) =      5.12147  eV     1   --> A'_1           
     e( 11 - 12) =      7.47135  eV     2   --> E'             
     e( 13 - 13) =      7.62384  eV     1   --> A''2           
     e( 14 - 14) =      8.09519  eV     1   --> A'_1           
     e( 15 - 15) =      9.90335  eV     1   --> A''2           
     e( 16 - 16) =     10.43993  eV     1   --> A'_1           
     e( 17 - 17) =     13.05223  eV     1   --> A''2           
     e( 18 - 18) =     14.18589  eV     1   --> A'_1           
     e( 19 - 19) =     18.21236  eV     1   --> A''2           
     e( 20 - 20) =     19.61607  eV     1   --> A'_1           

 **************************************************************************

 **************************************************************************

                    xk=(   0.50000,   0.28868,   0.07143  )

     point group C_2v (mm2) 
     there are  4 classes
     the character table:

       E     C2    s_v   s_v' 
A_1    1.00  1.00  1.00  1.00
A_2    1.00  1.00 -1.00 -1.00
B_1    1.00 -1.00  1.00 -1.00
B_2    1.00 -1.00 -1.00  1.00

     the symmetry operations in each class and the name of the first element:

     E        1
                                                                 
     C2       2
                                                                 
     s_v      3
                                                                 
     s_v'     4
                                                                 

     Band symmetry, C_2v (mm2)  point group:

     e(  1 -  1) =    -19.04903  eV     1   --> A_1  D_1  S_1  
     e(  2 -  2) =    -13.04018  eV     1   --> A_1  D_1  S_1  
     e(  3 -  3) =     -8.23558  eV     1   --> B_1  D_3  S_3  
     e(  4 -  4) =     -4.90141  eV     1   --> B_2  D_4  S_4  
     e(  5 -  5) =      0.59458  eV     1   --> B_2  D_4  S_4  
     e(  6 -  6) =      5.51111  eV     1   --> A_1  D_1  S_1  
     e(  7 -  7) =      8.50171  eV     1   --> A_1  D_1  S_1  
     e(  8 -  8) =      9.01083  eV     1   --> A_1  D_1  S_1  
     e(  9 -  9) =      9.31315  eV     1   --> B_2  D_4  S_4  
     e( 10 - 10) =      9.77199  eV     1   --> B_2  D_4  S_4  
     e( 11 - 11) =     10.20404  eV     1   --> B_2  D_4  S_4  
     e( 12 - 12) =     10.55671  eV     1   --> B_2  D_4  S_4  
     e( 13 - 13) =     10.75290  eV     1   --> A_1  D_1  S_1  
     e( 14 - 14) =     10.90788  eV     1   --> A_1  D_1  S_1  
     e( 15 - 15) =     12.03727  eV     1   --> B_2  D_4  S_4  
     e( 16 - 16) =     12.77204  eV     1   --> B_2  D_4  S_4  
     e( 17 - 17) =     12.96960  eV     1   --> A_1  D_1  S_1  
     e( 18 - 18) =     13.36560  eV     1   --> A_1  D_1  S_1  
     e( 19 - 19) =     14.65264  eV     1   --> B_2  D_4  S_4  
     e( 20 - 20) =     16.00489  eV     1   --> A_1  D_1  S_1  

 **************************************************************************

 **************************************************************************

                    xk=(   0.50000,   0.28868,   0.04762  )

     point group C_s (m)    
     there are  2 classes
     the character table:

       E     s    
A'     1.00  1.00
A''    1.00 -1.00

     the symmetry operations in each class and the name of the first element:

     E        1
                                                                 
     s        2
                                                                 

     Band symmetry, C_s (m)     point group:

     e(  1 -  1) =    -19.05093  eV     1   --> A'             
     e(  2 -  2) =    -13.04578  eV     1   --> A'             
     e(  3 -  3) =     -8.24101  eV     1   --> A''            
     e(  4 -  4) =     -4.91747  eV     1   --> A'             
     e(  5 -  5) =      0.59457  eV     1   --> A'             
     e(  6 -  6) =      5.51007  eV     1   --> A'             
     e(  7 -  7) =      8.49986  eV     1   --> A'             
     e(  8 -  8) =      9.00866  eV     1   --> A'             
     e(  9 -  9) =      9.31713  eV     1   --> A'             
     e( 10 - 10) =      9.79696  eV     1   --> A'             
     e( 11 - 11) =     10.18441  eV     1   --> A'             
     e( 12 - 12) =     10.39784  eV     1   --> A'             
     e( 13 - 13) =     10.88585  eV     1   --> A'             
     e( 14 - 14) =     10.99648  eV     1   --> A'             
     e( 15 - 15) =     12.01073  eV     1   --> A'             
     e( 16 - 16) =     12.44821  eV     1   --> A'             
     e( 17 - 17) =     13.20634  eV     1   --> A'             
     e( 18 - 18) =     13.47938  eV     1   --> A'             
     e( 19 - 19) =     14.68590  eV     1   --> A'             
     e( 20 - 20) =     15.55844  eV     1   --> A'             

 **************************************************************************

 **************************************************************************

                    xk=(   0.50000,   0.28868,   0.02381  )

     Band symmetry, C_s (m)     point group:

     e(  1 -  1) =    -19.05068  eV     1   --> A'             
     e(  2 -  2) =    -13.04530  eV     1   --> A'             
     e(  3 -  3) =     -8.23553  eV     1   --> A''            
     e(  4 -  4) =     -4.92114  eV     1   --> A'             
     e(  5 -  5) =      0.59485  eV     1   --> A'             
     e(  6 -  6) =      5.50988  eV     1   --> A'             
     e(  7 -  7) =      8.49918  eV     1   --> A'             
     e(  8 -  8) =      9.00446  eV     1   --> A'             
     e(  9 -  9) =      9.32877  eV     1   --> A'             
     e( 10 - 10) =      9.86700  eV     1   --> A'             
     e( 11 - 11) =     10.14461  eV     1   --> A'             
     e( 12 - 12) =     10.21085  eV     1   --> A'             
     e( 13 - 13) =     10.96153  eV     1   --> A'             
     e( 14 - 14) =     11.27159  eV     1   --> A'             
     e( 15 - 15) =     11.92709  eV     1   --> A'             
     e( 16 - 16) =     12.10020  eV     1   --> A'             
     e( 17 - 17) =     13.26121  eV     1   --> A'             
     e( 18 - 18) =     13.88907  eV     1   --> A'             
     e( 19 - 19) =     14.69591  eV     1   --> A'             
     e( 20 - 20) =     15.11757  eV     1   --> A'             

 **************************************************************************

 **************************************************************************

                    xk=(   0.50000,   0.28868,   0.00000  )

     point group C_2v (mm2) 
     there are  4 classes
     the character table:

       E     C2    s_v   s_v' 
A_1    1.00  1.00  1.00  1.00
A_2    1.00  1.00 -1.00 -1.00
B_1    1.00 -1.00  1.00 -1.00
B_2    1.00 -1.00 -1.00  1.00

     the symmetry operations in each class and the name of the first element:

     E        1
                                                                 
     C2       2
                                                                 
     s_v      3
                                                                 
     s_v'     4
                                                                 

     Band symmetry, C_2v (mm2)  point group:

     e(  1 -  1) =    -19.05146  eV     1   --> A_1  D_1  S_1  
     e(  2 -  2) =    -13.05036  eV     1   --> A_1  D_1  S_1  
     e(  3 -  3) =     -8.24363  eV     1   --> B_1  D_3  S_3  
     e(  4 -  4) =     -4.91314  eV     1   --> B_2  D_4  S_4  
     e(  5 -  5) =      0.59643  eV     1   --> B_2  D_4  S_4  
     e(  6 -  6) =      5.50972  eV     1   --> A_1  D_1  S_1  
     e(  7 -  7) =      8.49705  eV     1   --> A_1  D_1  S_1  
     e(  8 -  8) =      9.00238  eV     1   --> A_1  D_1  S_1  
     e(  9 -  9) =      9.33623  eV     1   --> B_2  D_4  S_4  
     e( 10 - 10) =      9.93444  eV     1   --> B_2  D_4  S_4  
     e( 11 - 11) =     10.08429  eV     1   --> A_1  D_1  S_1  
     e( 12 - 12) =     10.14538  eV     1   --> A_1  D_1  S_1  
     e( 13 - 13) =     10.99226  eV     1   --> B_2  D_4  S_4  
     e( 14 - 14) =     11.50816  eV     1   --> B_2  D_4  S_4  
     e( 15 - 15) =     11.73681  eV     1   --> A_1  D_1  S_1  
     e( 16 - 16) =     11.99691  eV     1   --> A_1  D_1  S_1  
     e( 17 - 17) =     13.26642  eV     1   --> B_2  D_4  S_4  
     e( 18 - 18) =     14.31648  eV     1   --> B_2  D_4  S_4  
     e( 19 - 19) =     14.40603  eV     1   --> A_1  D_1  S_1  
     e( 20 - 20) =     15.00547  eV     1   --> A_1  D_1  S_1  

 **************************************************************************

 **************************************************************************

                    xk=(   0.33333,   0.57735,   0.07143  )

     point group C_3h (-6)  
     there are  6 classes
     the character table:

       E     C3    C3^2  s_h   S3    S3^5 
A'     1.00  1.00  1.00  1.00  1.00  1.00
E'     1.00 -0.50 -0.50  1.00 -0.50 -0.50
E'*    1.00 -0.50 -0.50  1.00 -0.50 -0.50
A''    1.00  1.00  1.00 -1.00 -1.00 -1.00
E''    1.00 -0.50 -0.50 -1.00  0.50  0.50
E''*   1.00 -0.50 -0.50 -1.00  0.50  0.50
     imaginary part
A'     0.00  0.00  0.00  0.00  0.00  0.00
E'     0.00  0.87 -0.87  0.00  0.87 -0.87
E'*    0.00 -0.87  0.87  0.00 -0.87  0.87
A''    0.00  0.00  0.00  0.00  0.00  0.00
E''    0.00  0.87 -0.87  0.00 -0.87  0.87
E''*   0.00 -0.87  0.87  0.00  0.87 -0.87

     the symmetry operations in each class and the name of the first element:

     E        1
                                                                 
     C3       2
                                                                 
     C3^2     3
                                                                 
     s_h      4
                                                                 
     S3       6
                                                                 
     S3^5     5
                                                                 

     Band symmetry, C_3h (-6)   point group:

     e(  1 -  1) =    -18.46665  eV     1   --> E'*            
     e(  2 -  2) =    -12.16312  eV     1   --> A'             
     e(  3 -  3) =    -11.19667  eV     1   --> E'             
     e(  4 -  4) =     -3.93399  eV     1   --> E''*           
     e(  5 -  5) =      0.48439  eV     1   --> E''            
     e(  6 -  6) =      8.01989  eV     1   --> A''            
     e(  7 -  7) =      9.49409  eV     1   --> E'             
     e(  8 -  8) =     10.56398  eV     1   --> A'             
     e(  9 -  9) =     11.22892  eV     1   --> E'*            
     e( 10 - 10) =     12.17035  eV     1   --> E''*           
     e( 11 - 11) =     12.43698  eV     1   --> E''            
     e( 12 - 12) =     12.63811  eV     1   --> A''            
     e( 13 - 13) =     12.98306  eV     1   --> E''*           
     e( 14 - 14) =     13.01215  eV     1   --> E'             
     e( 15 - 15) =     13.18447  eV     1   --> A'             
     e( 16 - 16) =     13.22088  eV     1   --> E''            
     e( 17 - 17) =     13.48095  eV     1   --> E'*            
     e( 18 - 18) =     13.81878  eV     1   --> A''            
     e( 19 - 19) =     14.06349  eV     1   --> E'*            
     e( 20 - 20) =     14.58371  eV     1   --> E'             

 **************************************************************************

 **************************************************************************

                    xk=(   0.33333,   0.57735,   0.04762  )

     point group C_3 (3)    
     there are  3 classes
     the character table:

       E     C3    C3^2 
A      1.00  1.00  1.00
E      1.00 -0.50 -0.50
E*     1.00 -0.50 -0.50
     imaginary part
A      0.00  0.00  0.00
E      0.00  0.87 -0.87
E*     0.00 -0.87  0.87

     the symmetry operations in each class and the name of the first element:

     E        1
                                                                 
     C3       2
                                                                 
     C3^2     3
                                                                 

     Band symmetry, C_3 (3)     point group:

     e(  1 -  1) =    -18.46596  eV     1   --> E*             
     e(  2 -  2) =    -12.16176  eV     1   --> A              
     e(  3 -  3) =    -11.19545  eV     1   --> E              
     e(  4 -  4) =     -3.92644  eV     1   --> E*             
     e(  5 -  5) =      0.48517  eV     1   --> E              
     e(  6 -  6) =      8.01992  eV     1   --> A              
     e(  7 -  7) =      9.49538  eV     1   --> E              
     e(  8 -  8) =     10.56478  eV     1   --> A              
     e(  9 -  9) =     11.22832  eV     1   --> E*             
     e( 10 - 10) =     12.18200  eV     1   --> E*             
     e( 11 - 11) =     12.45637  eV     1   --> E              
     e( 12 - 12) =     12.64985  eV     1   --> A              
     e( 13 - 13) =     12.89684  eV     1   --> E              
     e( 14 - 14) =     12.92264  eV     1   --> E*             
     e( 15 - 15) =     13.15140  eV     1   --> A              
     e( 16 - 16) =     13.35698  eV     1   --> E              
     e( 17 - 17) =     13.57264  eV     1   --> E*             
     e( 18 - 18) =     13.84619  eV     1   --> A              
     e( 19 - 19) =     14.05938  eV     1   --> E*             
     e( 20 - 20) =     14.49000  eV     1   --> E              

 **************************************************************************

 **************************************************************************

                    xk=(   0.33333,   0.57735,   0.02381  )

     Band symmetry, C_3 (3)     point group:

     e(  1 -  1) =    -18.46670  eV     1   --> E*             
     e(  2 -  2) =    -12.16613  eV     1   --> A              
     e(  3 -  3) =    -11.19819  eV     1   --> E              
     e(  4 -  4) =     -3.93736  eV     1   --> E*             
     e(  5 -  5) =      0.48391  eV     1   --> E              
     e(  6 -  6) =      8.01984  eV     1   --> A              
     e(  7 -  7) =      9.49162  eV     1   --> E              
     e(  8 -  8) =     10.56249  eV     1   --> A              
     e(  9 -  9) =     11.22707  eV     1   --> E*             
     e( 10 - 10) =     12.20540  eV     1   --> E*             
     e( 11 - 11) =     12.51341  eV     1   --> E              
     e( 12 - 12) =     12.67679  eV     1   --> A              
     e( 13 - 13) =     12.74276  eV     1   --> E              
     e( 14 - 14) =     12.82689  eV     1   --> E*             
     e( 15 - 15) =     13.08634  eV     1   --> A              
     e( 16 - 16) =     13.55731  eV     1   --> E              
     e( 17 - 17) =     13.75411  eV     1   --> E*             
     e( 18 - 18) =     13.89434  eV     1   --> A              
     e( 19 - 19) =     14.03665  eV     1   --> E*             
     e( 20 - 20) =     14.29869  eV     1   --> E              

 **************************************************************************

 **************************************************************************

                    xk=(   0.33333,   0.57735,   0.00000  )

     point group C_3h (-6)  
     there are  6 classes
     the character table:

       E     C3    C3^2  s_h   S3    S3^5 
A'     1.00  1.00  1.00  1.00  1.00  1.00
E'     1.00 -0.50 -0.50  1.00 -0.50 -0.50
E'*    1.00 -0.50 -0.50  1.00 -0.50 -0.50
A''    1.00  1.00  1.00 -1.00 -1.00 -1.00
E''    1.00 -0.50 -0.50 -1.00  0.50  0.50
E''*   1.00 -0.50 -0.50 -1.00  0.50  0.50
     imaginary part
A'     0.00  0.00  0.00  0.00  0.00  0.00
E'     0.00  0.87 -0.87  0.00  0.87 -0.87
E'*    0.00 -0.87  0.87  0.00 -0.87  0.87
A''    0.00  0.00  0.00  0.00  0.00  0.00
E''    0.00  0.87 -0.87  0.00 -0.87  0.87
E''*   0.00 -0.87  0.87  0.00  0.87 -0.87

     the symmetry operations in each class and the name of the first element:

     E        1
                                                                 
     C3       2
                                                                 
     C3^2     3
                                                                 
     s_h      4
                                                                 
     S3       6
                                                                 
     S3^5     5
                                                                 

     Band symmetry, C_3h (-6)   point group:

     e(  1 -  1) =    -18.46640  eV     1   --> E'*            
     e(  2 -  2) =    -12.16985  eV     1   --> A'             
     e(  3 -  3) =    -11.20010  eV     1   --> E'             
     e(  4 -  4) =     -3.91540  eV     1   --> E''*           
     e(  5 -  5) =      0.48634  eV     1   --> E''            
     e(  6 -  6) =      8.01986  eV     1   --> A''            
     e(  7 -  7) =      9.49045  eV     1   --> E'             
     e(  8 -  8) =     10.56125  eV     1   --> A'             
     e(  9 -  9) =     11.22635  eV     1   --> E'*            
     e( 10 - 10) =     12.22111  eV     1   --> E''*           
     e( 11 - 11) =     12.58803  eV     1   --> E''            
     e( 12 - 12) =     12.63434  eV     1   --> E'             
     e( 13 - 13) =     12.69274  eV     1   --> A'             
     e( 14 - 14) =     12.78515  eV     1   --> E'*            
     e( 15 - 15) =     13.05353  eV     1   --> A''            
     e( 16 - 16) =     13.67010  eV     1   --> E'             
     e( 17 - 17) =     13.87890  eV     1   --> E''*           
     e( 18 - 18) =     13.91576  eV     1   --> A'             
     e( 19 - 19) =     13.99984  eV     1   --> E'*            
     e( 20 - 20) =     14.18385  eV     1   --> E''            

 **************************************************************************

     BANDS        :     12.88s CPU     15.85s WALL


   This run was terminated on:  19:24: 3  12Oct2021            

=------------------------------------------------------------------------------=
   JOB DONE.
=------------------------------------------------------------------------------=
