
     Program PWSCF v.6.7MaX starts on 12Oct2021 at 19:23:38 

     This program is part of the open-source Quantum ESPRESSO suite
     for quantum simulation of materials; please cite
         "P. Giannozzi et al., J. Phys.:Condens. Matter 21 395502 (2009);
         "P. Giannozzi et al., J. Phys.:Condens. Matter 29 465901 (2017);
          URL http://www.quantum-espresso.org", 
     in publications or presentations arising from this work. More details at
     http://www.quantum-espresso.org/quote

     Parallel version (MPI), running on    56 processors

     MPI processes distributed on     2 nodes
     K-points division:     npool     =       7
     R & G space division:  proc/nbgrp/npool/nimage =       8
     Waiting for input...
     Reading input from standard input

     Current dimensions of program PWSCF are:
     Max number of different atomic species (ntypx) = 10
     Max number of k-points (npk) =  40000
     Max angular momentum in pseudopotentials (lmaxx) =  3

     Atomic positions and unit cell read from directory:
     run_output/hBN_2D.save/
     Atomic positions from file used, from input discarded


     Subspace diagonalization in iterative solution of the eigenvalue problem:
     one sub-group per band group will be used
     scalapack distributed-memory algorithm (size of sub-group:  2*  2 procs)


     Parallelization info
     --------------------
     sticks:   dense  smooth     PW     G-vecs:    dense   smooth      PW
     Min          31      31     10                 2719     2719     512
     Max          32      32     11                 2731     2731     527
     Sum         253     253     85                21817    21817    4155



     bravais-lattice index     =            4
     lattice parameter (alat)  =       4.7160  a.u.
     unit-cell volume          =     635.8432 (a.u.)^3
     number of atoms/cell      =            2
     number of atomic types    =            2
     number of electrons       =         8.00
     number of Kohn-Sham states=           20
     kinetic-energy cutoff     =      40.0000  Ry
     charge density cutoff     =     160.0000  Ry
     Exchange-correlation=  SLA  PZ   NOGX NOGC
                           (   1   1   0   0   0   0   0)

     celldm(1)=   4.716000  celldm(2)=   0.000000  celldm(3)=   7.000000
     celldm(4)=   0.000000  celldm(5)=   0.000000  celldm(6)=   0.000000

     crystal axes: (cart. coord. in units of alat)
               a(1) = (   1.000000   0.000000   0.000000 )  
               a(2) = (  -0.500000   0.866025   0.000000 )  
               a(3) = (   0.000000   0.000000   7.000000 )  

     reciprocal axes: (cart. coord. in units 2 pi/alat)
               b(1) = (  1.000000  0.577350 -0.000000 )  
               b(2) = (  0.000000  1.154701  0.000000 )  
               b(3) = (  0.000000 -0.000000  0.142857 )  


     PseudoPot. # 1 for B  read from file:
     PPs/B.pz-vbc.UPF
     MD5 check sum: b59596b5d63edeea6a2b3a0beace49c5
     Pseudo is Norm-conserving, Zval =  3.0
     Generated by new atomic code, or converted to UPF format
     Using radial grid of  157 points,  1 beta functions with: 
                l(1) =   0

     PseudoPot. # 2 for N  read from file:
     PPs/N.pz-vbc.UPF
     MD5 check sum: f7a51f6f78412844d17f6e69b370b417
     Pseudo is Norm-conserving, Zval =  5.0
     Generated by new atomic code, or converted to UPF format
     Using radial grid of  161 points,  1 beta functions with: 
                l(1) =   0

     atomic species   valence    mass     pseudopotential
        B              3.00    10.00000     B ( 1.00)
        N              5.00    14.00000     N ( 1.00)

     12 Sym. Ops. (no inversion) found


                                    s                        frac. trans.

      isym =  1     identity                                     

 cryst.   s( 1) = (     1          0          0      )
                  (     0          1          0      )
                  (     0          0          1      )

 cart.    s( 1) = (  1.0000000  0.0000000  0.0000000 )
                  (  0.0000000  1.0000000  0.0000000 )
                  (  0.0000000  0.0000000  1.0000000 )


      isym =  2     180 deg rotation - cart. axis [0,1,0]        

 cryst.   s( 2) = (    -1          0          0      )
                  (     1          1          0      )
                  (     0          0         -1      )

 cart.    s( 2) = ( -1.0000000  0.0000000  0.0000000 )
                  (  0.0000000  1.0000000  0.0000000 )
                  (  0.0000000  0.0000000 -1.0000000 )


      isym =  3     120 deg rotation - cryst. axis [0,0,1]       

 cryst.   s( 3) = (     0          1          0      )
                  (    -1         -1          0      )
                  (     0          0          1      )

 cart.    s( 3) = ( -0.5000000 -0.8660254  0.0000000 )
                  (  0.8660254 -0.5000000  0.0000000 )
                  (  0.0000000  0.0000000  1.0000000 )


      isym =  4     120 deg rotation - cryst. axis [0,0,-1]      

 cryst.   s( 4) = (    -1         -1          0      )
                  (     1          0          0      )
                  (     0          0          1      )

 cart.    s( 4) = ( -0.5000000  0.8660254  0.0000000 )
                  ( -0.8660254 -0.5000000  0.0000000 )
                  (  0.0000000  0.0000000  1.0000000 )


      isym =  5     180 deg rotation - cryst. axis [1,-1,0]      

 cryst.   s( 5) = (     0         -1          0      )
                  (    -1          0          0      )
                  (     0          0         -1      )

 cart.    s( 5) = (  0.5000000 -0.8660254  0.0000000 )
                  ( -0.8660254 -0.5000000  0.0000000 )
                  (  0.0000000  0.0000000 -1.0000000 )


      isym =  6     180 deg rotation - cryst. axis [2,1,0]       

 cryst.   s( 6) = (     1          1          0      )
                  (     0         -1          0      )
                  (     0          0         -1      )

 cart.    s( 6) = (  0.5000000  0.8660254  0.0000000 )
                  (  0.8660254 -0.5000000  0.0000000 )
                  (  0.0000000  0.0000000 -1.0000000 )


      isym =  7     inv. 180 deg rotation - cart. axis [0,0,1]   

 cryst.   s( 7) = (     1          0          0      )
                  (     0          1          0      )
                  (     0          0         -1      )

 cart.    s( 7) = (  1.0000000  0.0000000  0.0000000 )
                  (  0.0000000  1.0000000  0.0000000 )
                  (  0.0000000  0.0000000 -1.0000000 )


      isym =  8     inv. 180 deg rotation - cart. axis [1,0,0]   

 cryst.   s( 8) = (    -1          0          0      )
                  (     1          1          0      )
                  (     0          0          1      )

 cart.    s( 8) = ( -1.0000000  0.0000000  0.0000000 )
                  (  0.0000000  1.0000000  0.0000000 )
                  (  0.0000000  0.0000000  1.0000000 )


      isym =  9     inv.  60 deg rotation - cryst. axis [0,0,1]  

 cryst.   s( 9) = (    -1         -1          0      )
                  (     1          0          0      )
                  (     0          0         -1      )

 cart.    s( 9) = ( -0.5000000  0.8660254  0.0000000 )
                  ( -0.8660254 -0.5000000  0.0000000 )
                  (  0.0000000  0.0000000 -1.0000000 )


      isym = 10     inv.  60 deg rotation - cryst. axis [0,0,-1] 

 cryst.   s(10) = (     0          1          0      )
                  (    -1         -1          0      )
                  (     0          0         -1      )

 cart.    s(10) = ( -0.5000000 -0.8660254  0.0000000 )
                  (  0.8660254 -0.5000000  0.0000000 )
                  (  0.0000000  0.0000000 -1.0000000 )


      isym = 11     inv. 180 deg rotation - cryst. axis [0,1,0]  

 cryst.   s(11) = (     1          1          0      )
                  (     0         -1          0      )
                  (     0          0          1      )

 cart.    s(11) = (  0.5000000  0.8660254  0.0000000 )
                  (  0.8660254 -0.5000000  0.0000000 )
                  (  0.0000000  0.0000000  1.0000000 )


      isym = 12     inv. 180 deg rotation - cryst. axis [1,1,0]  

 cryst.   s(12) = (     0         -1          0      )
                  (    -1          0          0      )
                  (     0          0          1      )

 cart.    s(12) = (  0.5000000 -0.8660254  0.0000000 )
                  ( -0.8660254 -0.5000000  0.0000000 )
                  (  0.0000000  0.0000000  1.0000000 )


     point group D_3h (-62m)
     there are  6 classes
     the character table:

       E     2C3   3C2   s_h   2S3   3s_v 
A'_1   1.00  1.00  1.00  1.00  1.00  1.00
A'_2   1.00  1.00 -1.00  1.00  1.00 -1.00
E'     2.00 -1.00  0.00  2.00 -1.00  0.00
A''1   1.00  1.00  1.00 -1.00 -1.00 -1.00
A''2   1.00  1.00 -1.00 -1.00 -1.00  1.00
E''    2.00 -1.00  0.00 -2.00  1.00  0.00

     the symmetry operations in each class and the name of the first element:

     E        1
          identity                                               
     2C3      3    4
          120 deg rotation - cryst. axis [0,0,1]                 
     3C2      2    6    5
          180 deg rotation - cart. axis [0,1,0]                  
     s_h      7
          inv. 180 deg rotation - cart. axis [0,0,1]             
     2S3      9   10
          inv.  60 deg rotation - cryst. axis [0,0,1]            
     3s_v     8   11   12
          inv. 180 deg rotation - cart. axis [1,0,0]             

   Cartesian axes

     site n.     atom                  positions (alat units)
         1           B   tau(   1) = (   0.5000001   0.2886751   0.0000000  )
         2           N   tau(   2) = (  -0.5000001  -0.2886751   0.0000000  )

   Crystallographic axes

     site n.     atom                  positions (cryst. coord.)
         1           B   tau(   1) = (  0.6666667  0.3333333  0.0000000  )
         2           N   tau(   2) = ( -0.6666667 -0.3333333  0.0000000  )

     number of k points=   190
                       cart. coord. in units 2pi/alat
        k(    1) = (   0.0000000   0.0000000   0.0000000), wk =   0.0105263
        k(    2) = (   0.0166667   0.0096225   0.0000000), wk =   0.0105263
        k(    3) = (   0.0333333   0.0192450   0.0000000), wk =   0.0105263
        k(    4) = (   0.0500000   0.0288675   0.0000000), wk =   0.0105263
        k(    5) = (   0.0666667   0.0384900   0.0000000), wk =   0.0105263
        k(    6) = (   0.0833333   0.0481125   0.0000000), wk =   0.0105263
        k(    7) = (   0.1000000   0.0577350   0.0000000), wk =   0.0105263
        k(    8) = (   0.1166667   0.0673575   0.0000000), wk =   0.0105263
        k(    9) = (   0.1333333   0.0769800   0.0000000), wk =   0.0105263
        k(   10) = (   0.1500000   0.0866025   0.0000000), wk =   0.0105263
        k(   11) = (   0.1666667   0.0962250   0.0000000), wk =   0.0105263
        k(   12) = (   0.1833333   0.1058475   0.0000000), wk =   0.0105263
        k(   13) = (   0.2000000   0.1154701   0.0000000), wk =   0.0105263
        k(   14) = (   0.2166667   0.1250926   0.0000000), wk =   0.0105263
        k(   15) = (   0.2333333   0.1347151   0.0000000), wk =   0.0105263
        k(   16) = (   0.2500000   0.1443376   0.0000000), wk =   0.0105263
        k(   17) = (   0.2666667   0.1539601   0.0000000), wk =   0.0105263
        k(   18) = (   0.2833333   0.1635826   0.0000000), wk =   0.0105263
        k(   19) = (   0.3000000   0.1732051   0.0000000), wk =   0.0105263
        k(   20) = (   0.3166667   0.1828276   0.0000000), wk =   0.0105263
        k(   21) = (   0.3333333   0.1924501   0.0000000), wk =   0.0105263
        k(   22) = (   0.3500000   0.2020726   0.0000000), wk =   0.0105263
        k(   23) = (   0.3666667   0.2116951   0.0000000), wk =   0.0105263
        k(   24) = (   0.3833333   0.2213176   0.0000000), wk =   0.0105263
        k(   25) = (   0.4000000   0.2309401   0.0000000), wk =   0.0105263
        k(   26) = (   0.4166667   0.2405626   0.0000000), wk =   0.0105263
        k(   27) = (   0.4333333   0.2501851   0.0000000), wk =   0.0105263
        k(   28) = (   0.4500000   0.2598076   0.0000000), wk =   0.0105263
        k(   29) = (   0.4666667   0.2694301   0.0000000), wk =   0.0105263
        k(   30) = (   0.4833333   0.2790526   0.0000000), wk =   0.0105263
        k(   31) = (   0.5000000   0.2886751   0.0000000), wk =   0.0105263
        k(   32) = (   0.4944444   0.2982976   0.0000000), wk =   0.0105263
        k(   33) = (   0.4888889   0.3079201   0.0000000), wk =   0.0105263
        k(   34) = (   0.4833333   0.3175426   0.0000000), wk =   0.0105263
        k(   35) = (   0.4777778   0.3271652   0.0000000), wk =   0.0105263
        k(   36) = (   0.4722222   0.3367877   0.0000000), wk =   0.0105263
        k(   37) = (   0.4666667   0.3464102   0.0000000), wk =   0.0105263
        k(   38) = (   0.4611111   0.3560327   0.0000000), wk =   0.0105263
        k(   39) = (   0.4555556   0.3656552   0.0000000), wk =   0.0105263
        k(   40) = (   0.4500000   0.3752777   0.0000000), wk =   0.0105263
        k(   41) = (   0.4444444   0.3849002   0.0000000), wk =   0.0105263
        k(   42) = (   0.4388889   0.3945227   0.0000000), wk =   0.0105263
        k(   43) = (   0.4333333   0.4041452   0.0000000), wk =   0.0105263
        k(   44) = (   0.4277778   0.4137677   0.0000000), wk =   0.0105263
        k(   45) = (   0.4222222   0.4233902   0.0000000), wk =   0.0105263
        k(   46) = (   0.4166667   0.4330127   0.0000000), wk =   0.0105263
        k(   47) = (   0.4111111   0.4426352   0.0000000), wk =   0.0105263
        k(   48) = (   0.4055556   0.4522577   0.0000000), wk =   0.0105263
        k(   49) = (   0.4000000   0.4618802   0.0000000), wk =   0.0105263
        k(   50) = (   0.3944444   0.4715027   0.0000000), wk =   0.0105263
        k(   51) = (   0.3888889   0.4811252   0.0000000), wk =   0.0105263
        k(   52) = (   0.3833333   0.4907477   0.0000000), wk =   0.0105263
        k(   53) = (   0.3777778   0.5003702   0.0000000), wk =   0.0105263
        k(   54) = (   0.3722222   0.5099927   0.0000000), wk =   0.0105263
        k(   55) = (   0.3666667   0.5196152   0.0000000), wk =   0.0105263
        k(   56) = (   0.3611111   0.5292377   0.0000000), wk =   0.0105263
        k(   57) = (   0.3555556   0.5388603   0.0000000), wk =   0.0105263
        k(   58) = (   0.3500000   0.5484828   0.0000000), wk =   0.0105263
        k(   59) = (   0.3444444   0.5581053   0.0000000), wk =   0.0105263
        k(   60) = (   0.3388889   0.5677278   0.0000000), wk =   0.0105263
        k(   61) = (   0.3333333   0.5773503   0.0000000), wk =   0.0105263
        k(   62) = (   0.3222222   0.5581053   0.0000000), wk =   0.0105263
        k(   63) = (   0.3111111   0.5388603   0.0000000), wk =   0.0105263
        k(   64) = (   0.3000000   0.5196152   0.0000000), wk =   0.0105263
        k(   65) = (   0.2888889   0.5003702   0.0000000), wk =   0.0105263
        k(   66) = (   0.2777778   0.4811252   0.0000000), wk =   0.0105263
        k(   67) = (   0.2666667   0.4618802   0.0000000), wk =   0.0105263
        k(   68) = (   0.2555556   0.4426352   0.0000000), wk =   0.0105263
        k(   69) = (   0.2444444   0.4233902   0.0000000), wk =   0.0105263
        k(   70) = (   0.2333333   0.4041452   0.0000000), wk =   0.0105263
        k(   71) = (   0.2222222   0.3849002   0.0000000), wk =   0.0105263
        k(   72) = (   0.2111111   0.3656552   0.0000000), wk =   0.0105263
        k(   73) = (   0.2000000   0.3464102   0.0000000), wk =   0.0105263
        k(   74) = (   0.1888889   0.3271652   0.0000000), wk =   0.0105263
        k(   75) = (   0.1777778   0.3079201   0.0000000), wk =   0.0105263
        k(   76) = (   0.1666667   0.2886751   0.0000000), wk =   0.0105263
        k(   77) = (   0.1555556   0.2694301   0.0000000), wk =   0.0105263
        k(   78) = (   0.1444444   0.2501851   0.0000000), wk =   0.0105263
        k(   79) = (   0.1333333   0.2309401   0.0000000), wk =   0.0105263
        k(   80) = (   0.1222222   0.2116951   0.0000000), wk =   0.0105263
        k(   81) = (   0.1111111   0.1924501   0.0000000), wk =   0.0105263
        k(   82) = (   0.1000000   0.1732051   0.0000000), wk =   0.0105263
        k(   83) = (   0.0888889   0.1539601   0.0000000), wk =   0.0105263
        k(   84) = (   0.0777778   0.1347151   0.0000000), wk =   0.0105263
        k(   85) = (   0.0666667   0.1154701   0.0000000), wk =   0.0105263
        k(   86) = (   0.0555556   0.0962250   0.0000000), wk =   0.0105263
        k(   87) = (   0.0444444   0.0769800   0.0000000), wk =   0.0105263
        k(   88) = (   0.0333333   0.0577350   0.0000000), wk =   0.0105263
        k(   89) = (   0.0222222   0.0384900   0.0000000), wk =   0.0105263
        k(   90) = (   0.0111111   0.0192450   0.0000000), wk =   0.0105263
        k(   91) = (   0.0000000   0.0000000   0.0000000), wk =   0.0105263
        k(   92) = (   0.0000000   0.0000000   0.0714286), wk =   0.0105263
        k(   93) = (   0.0166667   0.0096225   0.0714286), wk =   0.0105263
        k(   94) = (   0.0333333   0.0192450   0.0714286), wk =   0.0105263
        k(   95) = (   0.0500000   0.0288675   0.0714286), wk =   0.0105263
        k(   96) = (   0.0666667   0.0384900   0.0714286), wk =   0.0105263
        k(   97) = (   0.0833333   0.0481125   0.0714286), wk =   0.0105263
        k(   98) = (   0.1000000   0.0577350   0.0714286), wk =   0.0105263
        k(   99) = (   0.1166667   0.0673575   0.0714286), wk =   0.0105263
        k(  100) = (   0.1333333   0.0769800   0.0714286), wk =   0.0105263
        k(  101) = (   0.1500000   0.0866025   0.0714286), wk =   0.0105263
        k(  102) = (   0.1666667   0.0962250   0.0714286), wk =   0.0105263
        k(  103) = (   0.1833333   0.1058475   0.0714286), wk =   0.0105263
        k(  104) = (   0.2000000   0.1154701   0.0714286), wk =   0.0105263
        k(  105) = (   0.2166667   0.1250926   0.0714286), wk =   0.0105263
        k(  106) = (   0.2333333   0.1347151   0.0714286), wk =   0.0105263
        k(  107) = (   0.2500000   0.1443376   0.0714286), wk =   0.0105263
        k(  108) = (   0.2666667   0.1539601   0.0714286), wk =   0.0105263
        k(  109) = (   0.2833333   0.1635826   0.0714286), wk =   0.0105263
        k(  110) = (   0.3000000   0.1732051   0.0714286), wk =   0.0105263
        k(  111) = (   0.3166667   0.1828276   0.0714286), wk =   0.0105263
        k(  112) = (   0.3333333   0.1924501   0.0714286), wk =   0.0105263
        k(  113) = (   0.3500000   0.2020726   0.0714286), wk =   0.0105263
        k(  114) = (   0.3666667   0.2116951   0.0714286), wk =   0.0105263
        k(  115) = (   0.3833333   0.2213176   0.0714286), wk =   0.0105263
        k(  116) = (   0.4000000   0.2309401   0.0714286), wk =   0.0105263
        k(  117) = (   0.4166667   0.2405626   0.0714286), wk =   0.0105263
        k(  118) = (   0.4333333   0.2501851   0.0714286), wk =   0.0105263
        k(  119) = (   0.4500000   0.2598076   0.0714286), wk =   0.0105263
        k(  120) = (   0.4666667   0.2694301   0.0714286), wk =   0.0105263
        k(  121) = (   0.4833333   0.2790526   0.0714286), wk =   0.0105263
        k(  122) = (   0.5000000   0.2886751   0.0714286), wk =   0.0105263
        k(  123) = (   0.4944444   0.2982976   0.0714286), wk =   0.0105263
        k(  124) = (   0.4888889   0.3079201   0.0714286), wk =   0.0105263
        k(  125) = (   0.4833333   0.3175426   0.0714286), wk =   0.0105263
        k(  126) = (   0.4777778   0.3271652   0.0714286), wk =   0.0105263
        k(  127) = (   0.4722222   0.3367877   0.0714286), wk =   0.0105263
        k(  128) = (   0.4666667   0.3464102   0.0714286), wk =   0.0105263
        k(  129) = (   0.4611111   0.3560327   0.0714286), wk =   0.0105263
        k(  130) = (   0.4555556   0.3656552   0.0714286), wk =   0.0105263
        k(  131) = (   0.4500000   0.3752777   0.0714286), wk =   0.0105263
        k(  132) = (   0.4444444   0.3849002   0.0714286), wk =   0.0105263
        k(  133) = (   0.4388889   0.3945227   0.0714286), wk =   0.0105263
        k(  134) = (   0.4333333   0.4041452   0.0714286), wk =   0.0105263
        k(  135) = (   0.4277778   0.4137677   0.0714286), wk =   0.0105263
        k(  136) = (   0.4222222   0.4233902   0.0714286), wk =   0.0105263
        k(  137) = (   0.4166667   0.4330127   0.0714286), wk =   0.0105263
        k(  138) = (   0.4111111   0.4426352   0.0714286), wk =   0.0105263
        k(  139) = (   0.4055556   0.4522577   0.0714286), wk =   0.0105263
        k(  140) = (   0.4000000   0.4618802   0.0714286), wk =   0.0105263
        k(  141) = (   0.3944444   0.4715027   0.0714286), wk =   0.0105263
        k(  142) = (   0.3888889   0.4811252   0.0714286), wk =   0.0105263
        k(  143) = (   0.3833333   0.4907477   0.0714286), wk =   0.0105263
        k(  144) = (   0.3777778   0.5003702   0.0714286), wk =   0.0105263
        k(  145) = (   0.3722222   0.5099927   0.0714286), wk =   0.0105263
        k(  146) = (   0.3666667   0.5196152   0.0714286), wk =   0.0105263
        k(  147) = (   0.3611111   0.5292377   0.0714286), wk =   0.0105263
        k(  148) = (   0.3555556   0.5388603   0.0714286), wk =   0.0105263
        k(  149) = (   0.3500000   0.5484828   0.0714286), wk =   0.0105263
        k(  150) = (   0.3444444   0.5581053   0.0714286), wk =   0.0105263
        k(  151) = (   0.3388889   0.5677278   0.0714286), wk =   0.0105263
        k(  152) = (   0.3333333   0.5773503   0.0714286), wk =   0.0105263
        k(  153) = (   0.3222222   0.5581053   0.0714286), wk =   0.0105263
        k(  154) = (   0.3111111   0.5388603   0.0714286), wk =   0.0105263
        k(  155) = (   0.3000000   0.5196152   0.0714286), wk =   0.0105263
        k(  156) = (   0.2888889   0.5003702   0.0714286), wk =   0.0105263
        k(  157) = (   0.2777778   0.4811252   0.0714286), wk =   0.0105263
        k(  158) = (   0.2666667   0.4618802   0.0714286), wk =   0.0105263
        k(  159) = (   0.2555556   0.4426352   0.0714286), wk =   0.0105263
        k(  160) = (   0.2444444   0.4233902   0.0714286), wk =   0.0105263
        k(  161) = (   0.2333333   0.4041452   0.0714286), wk =   0.0105263
        k(  162) = (   0.2222222   0.3849002   0.0714286), wk =   0.0105263
        k(  163) = (   0.2111111   0.3656552   0.0714286), wk =   0.0105263
        k(  164) = (   0.2000000   0.3464102   0.0714286), wk =   0.0105263
        k(  165) = (   0.1888889   0.3271652   0.0714286), wk =   0.0105263
        k(  166) = (   0.1777778   0.3079201   0.0714286), wk =   0.0105263
        k(  167) = (   0.1666667   0.2886751   0.0714286), wk =   0.0105263
        k(  168) = (   0.1555556   0.2694301   0.0714286), wk =   0.0105263
        k(  169) = (   0.1444444   0.2501851   0.0714286), wk =   0.0105263
        k(  170) = (   0.1333333   0.2309401   0.0714286), wk =   0.0105263
        k(  171) = (   0.1222222   0.2116951   0.0714286), wk =   0.0105263
        k(  172) = (   0.1111111   0.1924501   0.0714286), wk =   0.0105263
        k(  173) = (   0.1000000   0.1732051   0.0714286), wk =   0.0105263
        k(  174) = (   0.0888889   0.1539601   0.0714286), wk =   0.0105263
        k(  175) = (   0.0777778   0.1347151   0.0714286), wk =   0.0105263
        k(  176) = (   0.0666667   0.1154701   0.0714286), wk =   0.0105263
        k(  177) = (   0.0555556   0.0962250   0.0714286), wk =   0.0105263
        k(  178) = (   0.0444444   0.0769800   0.0714286), wk =   0.0105263
        k(  179) = (   0.0333333   0.0577350   0.0714286), wk =   0.0105263
        k(  180) = (   0.0222222   0.0384900   0.0714286), wk =   0.0105263
        k(  181) = (   0.0111111   0.0192450   0.0714286), wk =   0.0105263
        k(  182) = (   0.0000000   0.0000000   0.0714286), wk =   0.0105263
        k(  183) = (   0.5000000   0.2886751   0.0714286), wk =   0.0105263
        k(  184) = (   0.5000000   0.2886751   0.0476190), wk =   0.0105263
        k(  185) = (   0.5000000   0.2886751   0.0238095), wk =   0.0105263
        k(  186) = (   0.5000000   0.2886751   0.0000000), wk =   0.0105263
        k(  187) = (   0.3333333   0.5773503   0.0714286), wk =   0.0105263
        k(  188) = (   0.3333333   0.5773503   0.0476190), wk =   0.0105263
        k(  189) = (   0.3333333   0.5773503   0.0238095), wk =   0.0105263
        k(  190) = (   0.3333333   0.5773503   0.0000000), wk =   0.0105263

                       cryst. coord.
        k(    1) = (   0.0000000   0.0000000   0.0000000), wk =   0.0105263
        k(    2) = (   0.0166667   0.0000000   0.0000000), wk =   0.0105263
        k(    3) = (   0.0333333   0.0000000   0.0000000), wk =   0.0105263
        k(    4) = (   0.0500000   0.0000000   0.0000000), wk =   0.0105263
        k(    5) = (   0.0666667   0.0000000   0.0000000), wk =   0.0105263
        k(    6) = (   0.0833333   0.0000000   0.0000000), wk =   0.0105263
        k(    7) = (   0.1000000   0.0000000   0.0000000), wk =   0.0105263
        k(    8) = (   0.1166667   0.0000000   0.0000000), wk =   0.0105263
        k(    9) = (   0.1333333   0.0000000   0.0000000), wk =   0.0105263
        k(   10) = (   0.1500000   0.0000000   0.0000000), wk =   0.0105263
        k(   11) = (   0.1666667   0.0000000   0.0000000), wk =   0.0105263
        k(   12) = (   0.1833333   0.0000000   0.0000000), wk =   0.0105263
        k(   13) = (   0.2000000   0.0000000   0.0000000), wk =   0.0105263
        k(   14) = (   0.2166667  -0.0000000   0.0000000), wk =   0.0105263
        k(   15) = (   0.2333333   0.0000000   0.0000000), wk =   0.0105263
        k(   16) = (   0.2500000   0.0000000   0.0000000), wk =   0.0105263
        k(   17) = (   0.2666667   0.0000000   0.0000000), wk =   0.0105263
        k(   18) = (   0.2833333   0.0000000   0.0000000), wk =   0.0105263
        k(   19) = (   0.3000000   0.0000000   0.0000000), wk =   0.0105263
        k(   20) = (   0.3166667   0.0000000   0.0000000), wk =   0.0105263
        k(   21) = (   0.3333333   0.0000000   0.0000000), wk =   0.0105263
        k(   22) = (   0.3500000   0.0000000   0.0000000), wk =   0.0105263
        k(   23) = (   0.3666667   0.0000000   0.0000000), wk =   0.0105263
        k(   24) = (   0.3833333   0.0000000   0.0000000), wk =   0.0105263
        k(   25) = (   0.4000000   0.0000000   0.0000000), wk =   0.0105263
        k(   26) = (   0.4166667   0.0000000   0.0000000), wk =   0.0105263
        k(   27) = (   0.4333333  -0.0000000   0.0000000), wk =   0.0105263
        k(   28) = (   0.4500000   0.0000000   0.0000000), wk =   0.0105263
        k(   29) = (   0.4666667   0.0000000   0.0000000), wk =   0.0105263
        k(   30) = (   0.4833333  -0.0000000   0.0000000), wk =   0.0105263
        k(   31) = (   0.5000000   0.0000000   0.0000000), wk =   0.0105263
        k(   32) = (   0.4944444   0.0111111   0.0000000), wk =   0.0105263
        k(   33) = (   0.4888889   0.0222222   0.0000000), wk =   0.0105263
        k(   34) = (   0.4833333   0.0333333   0.0000000), wk =   0.0105263
        k(   35) = (   0.4777778   0.0444444   0.0000000), wk =   0.0105263
        k(   36) = (   0.4722222   0.0555556   0.0000000), wk =   0.0105263
        k(   37) = (   0.4666667   0.0666667   0.0000000), wk =   0.0105263
        k(   38) = (   0.4611111   0.0777778   0.0000000), wk =   0.0105263
        k(   39) = (   0.4555556   0.0888889   0.0000000), wk =   0.0105263
        k(   40) = (   0.4500000   0.1000000   0.0000000), wk =   0.0105263
        k(   41) = (   0.4444444   0.1111111   0.0000000), wk =   0.0105263
        k(   42) = (   0.4388889   0.1222222   0.0000000), wk =   0.0105263
        k(   43) = (   0.4333333   0.1333333   0.0000000), wk =   0.0105263
        k(   44) = (   0.4277778   0.1444444   0.0000000), wk =   0.0105263
        k(   45) = (   0.4222222   0.1555556   0.0000000), wk =   0.0105263
        k(   46) = (   0.4166667   0.1666667   0.0000000), wk =   0.0105263
        k(   47) = (   0.4111111   0.1777778   0.0000000), wk =   0.0105263
        k(   48) = (   0.4055556   0.1888889   0.0000000), wk =   0.0105263
        k(   49) = (   0.4000000   0.2000000   0.0000000), wk =   0.0105263
        k(   50) = (   0.3944444   0.2111111   0.0000000), wk =   0.0105263
        k(   51) = (   0.3888889   0.2222222   0.0000000), wk =   0.0105263
        k(   52) = (   0.3833333   0.2333333   0.0000000), wk =   0.0105263
        k(   53) = (   0.3777778   0.2444444   0.0000000), wk =   0.0105263
        k(   54) = (   0.3722222   0.2555556   0.0000000), wk =   0.0105263
        k(   55) = (   0.3666667   0.2666667   0.0000000), wk =   0.0105263
        k(   56) = (   0.3611111   0.2777778   0.0000000), wk =   0.0105263
        k(   57) = (   0.3555556   0.2888889   0.0000000), wk =   0.0105263
        k(   58) = (   0.3500000   0.3000000   0.0000000), wk =   0.0105263
        k(   59) = (   0.3444444   0.3111111   0.0000000), wk =   0.0105263
        k(   60) = (   0.3388889   0.3222222   0.0000000), wk =   0.0105263
        k(   61) = (   0.3333333   0.3333333   0.0000000), wk =   0.0105263
        k(   62) = (   0.3222222   0.3222222   0.0000000), wk =   0.0105263
        k(   63) = (   0.3111111   0.3111111   0.0000000), wk =   0.0105263
        k(   64) = (   0.3000000   0.3000000   0.0000000), wk =   0.0105263
        k(   65) = (   0.2888889   0.2888889   0.0000000), wk =   0.0105263
        k(   66) = (   0.2777778   0.2777778   0.0000000), wk =   0.0105263
        k(   67) = (   0.2666667   0.2666667   0.0000000), wk =   0.0105263
        k(   68) = (   0.2555556   0.2555556   0.0000000), wk =   0.0105263
        k(   69) = (   0.2444444   0.2444444   0.0000000), wk =   0.0105263
        k(   70) = (   0.2333333   0.2333333   0.0000000), wk =   0.0105263
        k(   71) = (   0.2222222   0.2222222   0.0000000), wk =   0.0105263
        k(   72) = (   0.2111111   0.2111111   0.0000000), wk =   0.0105263
        k(   73) = (   0.2000000   0.2000000   0.0000000), wk =   0.0105263
        k(   74) = (   0.1888889   0.1888889   0.0000000), wk =   0.0105263
        k(   75) = (   0.1777778   0.1777778   0.0000000), wk =   0.0105263
        k(   76) = (   0.1666667   0.1666667   0.0000000), wk =   0.0105263
        k(   77) = (   0.1555556   0.1555556   0.0000000), wk =   0.0105263
        k(   78) = (   0.1444444   0.1444444   0.0000000), wk =   0.0105263
        k(   79) = (   0.1333333   0.1333333   0.0000000), wk =   0.0105263
        k(   80) = (   0.1222222   0.1222222   0.0000000), wk =   0.0105263
        k(   81) = (   0.1111111   0.1111111   0.0000000), wk =   0.0105263
        k(   82) = (   0.1000000   0.1000000   0.0000000), wk =   0.0105263
        k(   83) = (   0.0888889   0.0888889   0.0000000), wk =   0.0105263
        k(   84) = (   0.0777778   0.0777778   0.0000000), wk =   0.0105263
        k(   85) = (   0.0666667   0.0666667   0.0000000), wk =   0.0105263
        k(   86) = (   0.0555556   0.0555556   0.0000000), wk =   0.0105263
        k(   87) = (   0.0444444   0.0444444   0.0000000), wk =   0.0105263
        k(   88) = (   0.0333333   0.0333333   0.0000000), wk =   0.0105263
        k(   89) = (   0.0222222   0.0222222   0.0000000), wk =   0.0105263
        k(   90) = (   0.0111111   0.0111111   0.0000000), wk =   0.0105263
        k(   91) = (   0.0000000   0.0000000   0.0000000), wk =   0.0105263
        k(   92) = (   0.0000000   0.0000000   0.5000000), wk =   0.0105263
        k(   93) = (   0.0166667   0.0000000   0.5000000), wk =   0.0105263
        k(   94) = (   0.0333333   0.0000000   0.5000000), wk =   0.0105263
        k(   95) = (   0.0500000   0.0000000   0.5000000), wk =   0.0105263
        k(   96) = (   0.0666667   0.0000000   0.5000000), wk =   0.0105263
        k(   97) = (   0.0833333   0.0000000   0.5000000), wk =   0.0105263
        k(   98) = (   0.1000000   0.0000000   0.5000000), wk =   0.0105263
        k(   99) = (   0.1166667   0.0000000   0.5000000), wk =   0.0105263
        k(  100) = (   0.1333333   0.0000000   0.5000000), wk =   0.0105263
        k(  101) = (   0.1500000   0.0000000   0.5000000), wk =   0.0105263
        k(  102) = (   0.1666667   0.0000000   0.5000000), wk =   0.0105263
        k(  103) = (   0.1833333   0.0000000   0.5000000), wk =   0.0105263
        k(  104) = (   0.2000000   0.0000000   0.5000000), wk =   0.0105263
        k(  105) = (   0.2166667  -0.0000000   0.5000000), wk =   0.0105263
        k(  106) = (   0.2333333   0.0000000   0.5000000), wk =   0.0105263
        k(  107) = (   0.2500000   0.0000000   0.5000000), wk =   0.0105263
        k(  108) = (   0.2666667   0.0000000   0.5000000), wk =   0.0105263
        k(  109) = (   0.2833333   0.0000000   0.5000000), wk =   0.0105263
        k(  110) = (   0.3000000   0.0000000   0.5000000), wk =   0.0105263
        k(  111) = (   0.3166667   0.0000000   0.5000000), wk =   0.0105263
        k(  112) = (   0.3333333   0.0000000   0.5000000), wk =   0.0105263
        k(  113) = (   0.3500000   0.0000000   0.5000000), wk =   0.0105263
        k(  114) = (   0.3666667   0.0000000   0.5000000), wk =   0.0105263
        k(  115) = (   0.3833333   0.0000000   0.5000000), wk =   0.0105263
        k(  116) = (   0.4000000   0.0000000   0.5000000), wk =   0.0105263
        k(  117) = (   0.4166667   0.0000000   0.5000000), wk =   0.0105263
        k(  118) = (   0.4333333  -0.0000000   0.5000000), wk =   0.0105263
        k(  119) = (   0.4500000   0.0000000   0.5000000), wk =   0.0105263
        k(  120) = (   0.4666667   0.0000000   0.5000000), wk =   0.0105263
        k(  121) = (   0.4833333  -0.0000000   0.5000000), wk =   0.0105263
        k(  122) = (   0.5000000   0.0000000   0.5000000), wk =   0.0105263
        k(  123) = (   0.4944444   0.0111111   0.5000000), wk =   0.0105263
        k(  124) = (   0.4888889   0.0222222   0.5000000), wk =   0.0105263
        k(  125) = (   0.4833333   0.0333333   0.5000000), wk =   0.0105263
        k(  126) = (   0.4777778   0.0444444   0.5000000), wk =   0.0105263
        k(  127) = (   0.4722222   0.0555556   0.5000000), wk =   0.0105263
        k(  128) = (   0.4666667   0.0666667   0.5000000), wk =   0.0105263
        k(  129) = (   0.4611111   0.0777778   0.5000000), wk =   0.0105263
        k(  130) = (   0.4555556   0.0888889   0.5000000), wk =   0.0105263
        k(  131) = (   0.4500000   0.1000000   0.5000000), wk =   0.0105263
        k(  132) = (   0.4444444   0.1111111   0.5000000), wk =   0.0105263
        k(  133) = (   0.4388889   0.1222222   0.5000000), wk =   0.0105263
        k(  134) = (   0.4333333   0.1333333   0.5000000), wk =   0.0105263
        k(  135) = (   0.4277778   0.1444444   0.5000000), wk =   0.0105263
        k(  136) = (   0.4222222   0.1555556   0.5000000), wk =   0.0105263
        k(  137) = (   0.4166667   0.1666667   0.5000000), wk =   0.0105263
        k(  138) = (   0.4111111   0.1777778   0.5000000), wk =   0.0105263
        k(  139) = (   0.4055556   0.1888889   0.5000000), wk =   0.0105263
        k(  140) = (   0.4000000   0.2000000   0.5000000), wk =   0.0105263
        k(  141) = (   0.3944444   0.2111111   0.5000000), wk =   0.0105263
        k(  142) = (   0.3888889   0.2222222   0.5000000), wk =   0.0105263
        k(  143) = (   0.3833333   0.2333333   0.5000000), wk =   0.0105263
        k(  144) = (   0.3777778   0.2444444   0.5000000), wk =   0.0105263
        k(  145) = (   0.3722222   0.2555556   0.5000000), wk =   0.0105263
        k(  146) = (   0.3666667   0.2666667   0.5000000), wk =   0.0105263
        k(  147) = (   0.3611111   0.2777778   0.5000000), wk =   0.0105263
        k(  148) = (   0.3555556   0.2888889   0.5000000), wk =   0.0105263
        k(  149) = (   0.3500000   0.3000000   0.5000000), wk =   0.0105263
        k(  150) = (   0.3444444   0.3111111   0.5000000), wk =   0.0105263
        k(  151) = (   0.3388889   0.3222222   0.5000000), wk =   0.0105263
        k(  152) = (   0.3333333   0.3333333   0.5000000), wk =   0.0105263
        k(  153) = (   0.3222222   0.3222222   0.5000000), wk =   0.0105263
        k(  154) = (   0.3111111   0.3111111   0.5000000), wk =   0.0105263
        k(  155) = (   0.3000000   0.3000000   0.5000000), wk =   0.0105263
        k(  156) = (   0.2888889   0.2888889   0.5000000), wk =   0.0105263
        k(  157) = (   0.2777778   0.2777778   0.5000000), wk =   0.0105263
        k(  158) = (   0.2666667   0.2666667   0.5000000), wk =   0.0105263
        k(  159) = (   0.2555556   0.2555556   0.5000000), wk =   0.0105263
        k(  160) = (   0.2444444   0.2444444   0.5000000), wk =   0.0105263
        k(  161) = (   0.2333333   0.2333333   0.5000000), wk =   0.0105263
        k(  162) = (   0.2222222   0.2222222   0.5000000), wk =   0.0105263
        k(  163) = (   0.2111111   0.2111111   0.5000000), wk =   0.0105263
        k(  164) = (   0.2000000   0.2000000   0.5000000), wk =   0.0105263
        k(  165) = (   0.1888889   0.1888889   0.5000000), wk =   0.0105263
        k(  166) = (   0.1777778   0.1777778   0.5000000), wk =   0.0105263
        k(  167) = (   0.1666667   0.1666667   0.5000000), wk =   0.0105263
        k(  168) = (   0.1555556   0.1555556   0.5000000), wk =   0.0105263
        k(  169) = (   0.1444444   0.1444444   0.5000000), wk =   0.0105263
        k(  170) = (   0.1333333   0.1333333   0.5000000), wk =   0.0105263
        k(  171) = (   0.1222222   0.1222222   0.5000000), wk =   0.0105263
        k(  172) = (   0.1111111   0.1111111   0.5000000), wk =   0.0105263
        k(  173) = (   0.1000000   0.1000000   0.5000000), wk =   0.0105263
        k(  174) = (   0.0888889   0.0888889   0.5000000), wk =   0.0105263
        k(  175) = (   0.0777778   0.0777778   0.5000000), wk =   0.0105263
        k(  176) = (   0.0666667   0.0666667   0.5000000), wk =   0.0105263
        k(  177) = (   0.0555556   0.0555556   0.5000000), wk =   0.0105263
        k(  178) = (   0.0444444   0.0444444   0.5000000), wk =   0.0105263
        k(  179) = (   0.0333333   0.0333333   0.5000000), wk =   0.0105263
        k(  180) = (   0.0222222   0.0222222   0.5000000), wk =   0.0105263
        k(  181) = (   0.0111111   0.0111111   0.5000000), wk =   0.0105263
        k(  182) = (   0.0000000   0.0000000   0.5000000), wk =   0.0105263
        k(  183) = (   0.5000000   0.0000000   0.5000000), wk =   0.0105263
        k(  184) = (   0.5000000   0.0000000   0.3333333), wk =   0.0105263
        k(  185) = (   0.5000000   0.0000000   0.1666667), wk =   0.0105263
        k(  186) = (   0.5000000   0.0000000   0.0000000), wk =   0.0105263
        k(  187) = (   0.3333333   0.3333333   0.5000000), wk =   0.0105263
        k(  188) = (   0.3333333   0.3333333   0.3333333), wk =   0.0105263
        k(  189) = (   0.3333333   0.3333333   0.1666667), wk =   0.0105263
        k(  190) = (   0.3333333   0.3333333   0.0000000), wk =   0.0105263

     Dense  grid:    21817 G-vectors     FFT dimensions: (  20,  20, 135)

     Dynamical RAM for                 wfc:       0.10 MB

     Dynamical RAM for     wfc (w. buffer):       0.10 MB

     Dynamical RAM for           str. fact:       0.08 MB

     Dynamical RAM for           local pot:       0.00 MB

     Dynamical RAM for          nlocal pot:       0.01 MB

     Dynamical RAM for                qrad:       0.02 MB

     Dynamical RAM for          rho,v,vnew:       0.28 MB

     Dynamical RAM for           G-vectors:       0.18 MB

     Dynamical RAM for          h,s,v(r/c):       0.07 MB

     Dynamical RAM for          <psi|beta>:       0.00 MB

     Dynamical RAM for                 psi:       0.41 MB

     Dynamical RAM for                hpsi:       0.41 MB

     Dynamical RAM for      wfcinit/wfcrot:       0.22 MB

     Estimated static dynamical RAM per process >       1.06 MB

     Estimated max dynamical RAM per process >       1.96 MB

     Estimated total dynamical RAM >     109.76 MB

     The potential is recalculated from file :
     run_output/hBN_2D.save/charge-density

     Starting wfcs are    8 randomized atomic wfcs +   12 random wfcs

     Band Structure Calculation
     Davidson diagonalization with overlap

     Computing kpt #:     1  of    28 on this pool
     total cpu time spent up to now is        0.9 secs

     Computing kpt #:     2  of    28 on this pool
     total cpu time spent up to now is        1.0 secs

     Computing kpt #:     3  of    28 on this pool
     total cpu time spent up to now is        1.2 secs

     Computing kpt #:     4  of    28 on this pool
     total cpu time spent up to now is        1.3 secs

     Computing kpt #:     5  of    28 on this pool
     total cpu time spent up to now is        1.5 secs

     Computing kpt #:     6  of    28 on this pool
     total cpu time spent up to now is        1.6 secs

     Computing kpt #:     7  of    28 on this pool
     total cpu time spent up to now is        1.7 secs

     Computing kpt #:     8  of    28 on this pool
     total cpu time spent up to now is        1.9 secs

     Computing kpt #:     9  of    28 on this pool
     total cpu time spent up to now is        2.0 secs

     Computing kpt #:    10  of    28 on this pool
     total cpu time spent up to now is        2.2 secs

     Computing kpt #:    11  of    28 on this pool
     total cpu time spent up to now is        2.3 secs

     Computing kpt #:    12  of    28 on this pool
     total cpu time spent up to now is        2.5 secs

     Computing kpt #:    13  of    28 on this pool
     total cpu time spent up to now is        2.6 secs

     Computing kpt #:    14  of    28 on this pool
     total cpu time spent up to now is        2.7 secs

     Computing kpt #:    15  of    28 on this pool
     total cpu time spent up to now is        2.9 secs

     Computing kpt #:    16  of    28 on this pool
     total cpu time spent up to now is        3.0 secs

     Computing kpt #:    17  of    28 on this pool
     total cpu time spent up to now is        3.2 secs

     Computing kpt #:    18  of    28 on this pool
     total cpu time spent up to now is        3.3 secs

     Computing kpt #:    19  of    28 on this pool
     total cpu time spent up to now is        3.4 secs

     Computing kpt #:    20  of    28 on this pool
     total cpu time spent up to now is        3.6 secs

     Computing kpt #:    21  of    28 on this pool
     total cpu time spent up to now is        3.8 secs

     Computing kpt #:    22  of    28 on this pool
     total cpu time spent up to now is        3.9 secs

     Computing kpt #:    23  of    28 on this pool
     total cpu time spent up to now is        4.1 secs

     Computing kpt #:    24  of    28 on this pool
     total cpu time spent up to now is        4.2 secs

     Computing kpt #:    25  of    28 on this pool
     total cpu time spent up to now is        4.4 secs

     Computing kpt #:    26  of    28 on this pool
     total cpu time spent up to now is        4.5 secs

     Computing kpt #:    27  of    28 on this pool
     total cpu time spent up to now is        4.6 secs

     Computing kpt #:    28  of    28 on this pool
     total cpu time spent up to now is        4.8 secs

     ethr =  1.00E-06,  avg # of iterations = 14.9

     total cpu time spent up to now is        4.8 secs

     End of band structure calculation

          k = 0.0000 0.0000 0.0000 (  2731 PWs)   bands (ev):

   -22.1162  -9.4685  -5.3071  -5.3071   0.6556   1.8007   2.0624   3.3654
     3.8276   6.0487   6.5993   7.4779   7.4779   8.9384   9.3230  11.1015
    12.0110  15.4826  16.7702  21.0437

          k = 0.0167 0.0096 0.0000 (  2743 PWs)   bands (ev):

   -22.1117  -9.4614  -5.3483  -5.3284   0.6651   1.8093   2.0714   3.3738
     3.8368   6.0558   6.6080   7.4683   7.5008   8.9341   9.3398  11.0999
    12.0229  15.4877  16.7802  21.0611

          k = 0.0333 0.0192 0.0000 (  2747 PWs)   bands (ev):

   -22.0958  -9.4406  -5.4211  -5.3701   0.6940   1.8347   2.0985   3.3987
     3.8646   6.0758   6.6342   7.4559   7.5750   8.9145   9.3909  11.0932
    12.0585  15.5032  16.8099  21.1131

          k = 0.0500 0.0289 0.0000 (  2739 PWs)   bands (ev):

   -22.0684  -9.3994  -5.5391  -5.4191   0.7420   1.8779   2.1435   3.4411
     3.9108   6.1105   6.6760   7.4416   7.7030   8.8835   9.4747  11.0853
    12.1175  15.5299  16.8591  21.1508

          k = 0.0667 0.0385 0.0000 (  2729 PWs)   bands (ev):

   -22.0303  -9.3457  -5.6890  -5.4944   0.8085   1.9379   2.2066   3.4999
     3.9751   6.1577   6.7299   7.4286   7.8761   8.8383   9.5891  11.0817
    12.1993  15.5672  16.9272  21.1444

          k = 0.0833 0.0481 0.0000 (  2727 PWs)   bands (ev):

   -21.9822  -9.2787  -5.8941  -5.5887   0.8926   2.0145   2.2875   3.5747
     4.0569   6.2148   6.7898   7.4239   8.0940   8.7699   9.7293  11.0847
    12.3027  15.6156  17.0135  21.1182

          k = 0.1000 0.0577 0.0000 (  2725 PWs)   bands (ev):

   -21.9235  -9.1993  -6.1306  -5.6973   0.9942   2.1075   2.3862   3.6652
     4.1562   6.2790   6.8458   7.4342   8.3582   8.6755   9.8942  11.1000
    12.4269  15.6751  17.1173  21.0522

          k = 0.1167 0.0674 0.0000 (  2730 PWs)   bands (ev):

   -21.8552  -9.1070  -6.4007  -5.8271   1.1125   2.2167   2.5027   3.7711
     4.2723   6.3472   6.8864   7.4759   8.5610   8.6572  10.0801  11.1337
    12.5708  15.7453  17.2376  20.9170

          k = 0.1333 0.0770 0.0000 (  2724 PWs)   bands (ev):

   -21.7757  -8.9975  -6.6952  -5.9557   1.2476   2.3426   2.6368   3.8926
     4.4050   6.4158   6.9023   7.5557   8.4372   9.0001  10.2863  11.1892
    12.7332  15.8256  17.3736  20.6884

          k = 0.1500 0.0866 0.0000 (  2724 PWs)   bands (ev):

   -21.6863  -8.8743  -7.0191  -6.0984   1.3990   2.4842   2.7887   4.0282
     4.5537   6.4728   6.8959   7.6749   8.3104   9.3720  10.5093  11.2673
    12.9124  15.9141  17.5241  20.3691

          k = 0.1667 0.0962 0.0000 (  2724 PWs)   bands (ev):

   -21.5877  -8.7363  -7.3625  -6.2477   1.5656   2.6407   2.9580   4.1762
     4.7175   6.5022   6.8765   7.8263   8.1984   9.7838  10.7424  11.3685
    13.1046  16.0078  17.6878  19.9923

          k = 0.1833 0.1058 0.0000 (  2712 PWs)   bands (ev):

   -21.4787  -8.5850  -7.7050  -6.3911   1.7486   2.8112   3.1449   4.3343
     4.8961   6.4893   6.8499   8.0056   8.1308  10.2209  10.9932  11.4921
    13.3117  16.1015  17.8631  19.5973

          k = 0.2000 0.1155 0.0000 (  2702 PWs)   bands (ev):

   -21.3605  -8.4177  -8.0672  -6.5403   1.9469   2.9944   3.3493   4.4985
     5.0879   6.4245   6.8229   8.1262   8.2067  10.6827  11.2534  11.6369
    13.5279  16.1877  18.0467  19.2140

          k = 0.2167 0.1251 0.0000 (  2692 PWs)   bands (ev):

   -21.2345  -8.4365  -8.2403  -6.6812   2.1598   3.1856   3.5711   4.6579
     5.2903   6.3125   6.8009   8.1897   8.4273  11.1689  11.5200  11.8008
    13.7493  16.2536  18.2325  18.8654

          k = 0.2333 0.1347 0.0000 (  2698 PWs)   bands (ev):

   -21.1004  -8.8172  -8.0542  -6.8358   2.3876   3.3766   3.8101   4.7921
     5.4997   6.1841   6.7890   8.3129   8.6656  11.6632  11.7910  11.9820
    13.9708  16.2804  18.4030  18.5697

          k = 0.2500 0.1443 0.0000 (  2694 PWs)   bands (ev):

   -20.9586  -9.1901  -7.8538  -6.9838   2.6298   3.5544   4.0663   4.8773
     5.7092   6.1086   6.7987   8.4849   8.9215  12.0659  12.1771  12.1783
    14.1880  16.2478  18.3449  18.4906

          k = 0.2667 0.1540 0.0000 (  2690 PWs)   bands (ev):

   -20.8099  -9.5650  -7.6416  -7.1280   2.8853   3.6864   4.3392   4.9059
     5.9055   6.1387   6.8426   8.6940   9.1939  12.3369  12.3866  12.7062
    14.3895  16.1412  18.1880  18.2842

          k = 0.2833 0.1636 0.0000 (  2696 PWs)   bands (ev):

   -20.6562  -9.9447  -7.4201  -7.2677   3.1522   3.7138   4.6283   4.9391
     6.0695   6.2786   6.9419   8.9326   9.4816  12.5907  12.6031  13.2376
    14.5615  15.9616  17.8088  18.0461

          k = 0.3000 0.1732 0.0000 (  2706 PWs)   bands (ev):

   -20.4980 -10.3177  -7.3996  -7.1978   3.4306   3.5923   4.9329   5.0594
     6.1897   6.4965   7.1114   9.1948   9.7846  12.8168  12.8201  13.7740
    14.6927  15.7251  17.2896  17.7879

          k = 0.3167 0.1828 0.0000 (  2712 PWs)   bands (ev):

   -20.3363 -10.6790  -7.5321  -6.9564   3.3565   3.7176   5.2509   5.2732
     6.2754   6.7646   7.3482   9.4784  10.1018  12.9808  13.0307  14.3071
    14.7756  15.4542  16.7659  17.3340

          k = 0.3333 0.1925 0.0000 (  2722 PWs)   bands (ev):

   -20.1737 -11.0274  -7.6487  -6.7179   3.0519   4.0086   5.5494   5.5774
     6.3493   7.0669   7.6350   9.7787  10.4314  13.0350  13.2122  14.8293
    14.8394  15.1674  16.1967  16.7948

          k = 0.3500 0.2021 0.0000 (  2734 PWs)   bands (ev):

   -20.0109 -11.3625  -7.7624  -6.4756   2.7155   4.2991   5.8660   5.8987
     6.4465   7.3957   7.9584  10.0935  10.7714  12.9350  13.3298  14.8867
    14.8915  15.3588  15.5938  16.2594

          k = 0.3667 0.2117 0.0000 (  2730 PWs)   bands (ev):

   -19.8488 -11.6695  -7.8672  -6.2242   2.3739   4.5813   6.1789   6.2120
     6.6193   7.7469   8.3100  10.4200  11.1151  12.6934  13.3241  14.6625
    14.7763  15.1795  15.7715  15.8689

          k = 0.3833 0.2213 0.0000 (  2724 PWs)   bands (ev):

   -19.6919 -11.9622  -7.9451  -5.9775   2.0385   4.8400   6.3918   6.5816
     6.9109   8.1173   8.6846  10.7515  11.4258  12.3782  13.1480  14.2154
    14.4679  15.1647  15.3854  16.0182

          k = 0.4000 0.2309 0.0000 (  2720 PWs)   bands (ev):

   -19.5427 -12.2243  -8.0196  -5.7422   1.7130   5.0610   6.5916   6.9707
     7.2836   8.5043   9.0788  11.0739  11.5153  12.2338  12.8357  13.5972
    14.1937  14.9537  15.1698  15.9665

          k = 0.4167 0.2406 0.0000 (  2724 PWs)   bands (ev):

   -19.4063 -12.4639  -8.0872  -5.5198   1.4111   5.2313   6.8309   7.3771
     7.6975   8.9056   9.4879  11.1957  11.3484  12.4664  12.4860  12.9921
    13.8067  14.5180  15.0736  16.0887

          k = 0.4333 0.2502 0.0000 (  2716 PWs)   bands (ev):

   -19.2852 -12.6595  -8.1386  -5.3190   1.1414   5.3526   7.1261   7.7985
     8.1382   9.3175   9.9004  10.7639  11.4311  12.2700  12.3540  12.8672
    13.3839  14.0232  14.9734  16.1467

          k = 0.4500 0.2598 0.0000 (  2722 PWs)   bands (ev):

   -19.1861 -12.8237  -8.1809  -5.1529   0.9134   5.4299   7.4701   8.2309
     8.5996   9.7293  10.1122  10.5213  11.1808  11.7784  12.2831  13.0359
    13.1636  13.5999  14.8160  15.9704

          k = 0.4667 0.2694 0.0000 (  2724 PWs)   bands (ev):

   -19.1118 -12.9443  -8.2109  -5.0264   0.7409   5.4776   7.8505   8.6681
     9.0755   9.7352  10.0956  10.8320  10.8840  11.2174  12.1221  12.8771
    12.9965  13.7828  14.6123  15.6299

          k = 0.4833 0.2791 0.0000 (  2732 PWs)   bands (ev):

   -19.0664 -13.0223  -8.2394  -4.9393   0.6335   5.5022   8.2407   9.0875
     9.2612   9.6122  10.1256  10.6477  10.7964  11.3618  11.7588  12.3864
    13.1695  14.1670  14.4116  15.2444

          k = 0.5000 0.2887 0.0000 (  2736 PWs)   bands (ev):

   -19.0515 -13.0504  -8.2436  -4.9131   0.5964   5.5097   8.4971   9.0024
     9.3362   9.9344  10.0843  10.1454  10.9923  11.5082  11.7368  11.9969
    13.2664  14.3165  14.4060  15.0055

          k = 0.4944 0.2983 0.0000 (  2724 PWs)   bands (ev):

   -19.0489 -13.0437  -8.2422  -4.9079   0.5978   5.5211   8.5012   9.0059
     9.3375   9.9370  10.0874  10.1484  10.9936  11.5106  11.7404  11.9999
    13.2641  14.3185  14.4101  15.0082

          k = 0.4889 0.3079 0.0000 (  2728 PWs)   bands (ev):

   -19.0456 -13.0410  -8.2683  -4.9026   0.5992   5.5534   8.5077   9.0161
     9.3389   9.9444  10.0960  10.1574  10.9967  11.5177  11.7475  12.0086
    13.2555  14.3242  14.4139  15.0161

          k = 0.4833 0.3175 0.0000 (  2728 PWs)   bands (ev):

   -19.0396 -13.0341  -8.3056  -4.8933   0.6017   5.6073   8.5197   9.0332
     9.3413   9.9568  10.1106  10.1724  11.0019  11.5296  11.7601  12.0232
    13.2413  14.3339  14.4221  15.0293

          k = 0.4778 0.3272 0.0000 (  2722 PWs)   bands (ev):

   -19.0308 -13.0201  -8.3513  -4.8847   0.6040   5.6822   8.5381   9.0574
     9.3429   9.9740  10.1311  10.1934  11.0083  11.5462  11.7788  12.0436
    13.2207  14.3475  14.4359  15.0479

          k = 0.4722 0.3368 0.0000 (  2726 PWs)   bands (ev):

   -19.0204 -13.0077  -8.4196  -4.8701   0.6080   5.7765   8.5597   9.0886
     9.3446   9.9963  10.1572  10.2204  11.0166  11.5677  11.8015  12.0698
    13.1949  14.3654  14.4505  15.0715

          k = 0.4667 0.3464 0.0000 (  2730 PWs)   bands (ev):

   -19.0077 -12.9931  -8.5035  -4.8508   0.6124   5.8893   8.5859   9.1268
     9.3449  10.0236  10.1892  10.2534  11.0261  11.5942  11.8290  12.1019
    13.1640  14.3878  14.4675  15.1002

          k = 0.4611 0.3560 0.0000 (  2726 PWs)   bands (ev):

   -18.9920 -12.9772  -8.5848  -4.8236   0.6184   6.0197   8.6164   9.1723
     9.3436  10.0559  10.2269  10.2924  11.0372  11.6259  11.8613  12.1397
    13.1296  14.4152  14.4870  15.1339

          k = 0.4556 0.3657 0.0000 (  2718 PWs)   bands (ev):

   -18.9733 -12.9511  -8.6832  -4.7937   0.6242   6.1668   8.6540   9.2253
     9.3378  10.0933  10.2706  10.3374  11.0491  11.6628  11.8997  12.1834
    13.0929  14.4476  14.5120  15.1726

          k = 0.4500 0.3753 0.0000 (  2716 PWs)   bands (ev):

   -18.9539 -12.9255  -8.7951  -4.7618   0.6305   6.3292   8.6956   9.2860
     9.3257  10.1360  10.3201  10.3885  11.0621  11.7050  11.9426  12.2329
    13.0562  14.4854  14.5385  15.2160

          k = 0.4444 0.3849 0.0000 (  2716 PWs)   bands (ev):

   -18.9326 -12.8997  -8.9143  -4.7282   0.6363   6.5047   8.7412   9.3060
     9.3546  10.1838  10.3752  10.4456  11.0770  11.7527  11.9898  12.2880
    13.0228  14.5285  14.5661  15.2637

          k = 0.4389 0.3945 0.0000 (  2716 PWs)   bands (ev):

   -18.9096 -12.8715  -9.0389  -4.6935   0.6397   6.6912   8.7914   9.2754
     9.4312  10.2371  10.4361  10.5088  11.0942  11.8062  12.0417  12.3489
    12.9953  14.5775  14.5954  15.3156

          k = 0.4333 0.4041 0.0000 (  2702 PWs)   bands (ev):

   -18.8839 -12.8356  -9.1585  -4.6514   0.6458   6.8895   8.8485   9.2361
     9.5169  10.2960  10.5031  10.5781  11.1159  11.8655  12.0995  12.4156
    12.9769  14.6293  14.6324  15.3712

          k = 0.4278 0.4138 0.0000 (  2706 PWs)   bands (ev):

   -18.8582 -12.8021  -9.3015  -4.6109   0.6488   7.0905   8.9086   9.1834
     9.6109  10.3605  10.5756  10.6534  11.1428  11.9307  12.1606  12.4878
    12.9694  14.6612  14.6929  15.4294

          k = 0.4222 0.4234 0.0000 (  2714 PWs)   bands (ev):

   -18.8319 -12.7682  -9.4477  -4.5721   0.6507   7.2973   8.9732   9.1186
     9.7143  10.4308  10.6538  10.7349  11.1766  12.0018  12.2258  12.5656
    12.9741  14.6923  14.7588  15.4887

          k = 0.4167 0.4330 0.0000 (  2710 PWs)   bands (ev):

   -18.8029 -12.7295  -9.5899  -4.5227   0.6532   7.5070   9.0438   9.0443
     9.8273  10.5071  10.7378  10.8225  11.2188  12.0792  12.2958  12.6489
    12.9916  14.7237  14.8308  15.5473

          k = 0.4111 0.4426 0.0000 (  2714 PWs)   bands (ev):

   -18.7743 -12.6934  -9.7376  -4.4745   0.6523   7.7169   8.9595   9.1183
     9.9502  10.5895  10.8275  10.9162  11.2699  12.1627  12.3691  12.7375
    13.0218  14.7509  14.9077  15.5997

          k = 0.4056 0.4523 0.0000 (  2710 PWs)   bands (ev):

   -18.7439 -12.6504  -9.8798  -4.4243   0.6495   7.9261   8.8674   9.2003
    10.0838  10.6780  10.9231  11.0162  11.3305  12.2523  12.4475  12.8314
    13.0641  14.7756  14.9893  15.6328

          k = 0.4000 0.4619 0.0000 (  2710 PWs)   bands (ev):

   -18.7135 -12.6083 -10.0214  -4.3752   0.6431   8.1272   8.7698   9.2874
    10.2264  10.7726  11.0243  11.1222  11.4005  12.3480  12.5292  12.9303
    13.1177  14.7899  15.0742  15.6054

          k = 0.3944 0.4715 0.0000 (  2710 PWs)   bands (ev):

   -18.6831 -12.5622 -10.1677  -4.3238   0.6354   8.3203   8.6707   9.3820
    10.3775  10.8733  11.1314  11.2344  11.4798  12.4495  12.6153  13.0337
    13.1814  14.7829  15.1603  15.4791

          k = 0.3889 0.4811 0.0000 (  2706 PWs)   bands (ev):

   -18.6528 -12.5106 -10.3100  -4.2733   0.6247   8.5020   8.5719   9.4846
    10.5348  10.9800  11.2444  11.3523  11.5680  12.5569  12.7064  13.1414
    13.2539  14.7342  15.2422  15.3339

          k = 0.3833 0.4907 0.0000 (  2698 PWs)   bands (ev):

   -18.6227 -12.4611 -10.4404  -4.2203   0.6116   8.4762   8.6739   9.5939
    10.6977  11.0929  11.3630  11.4759  11.6646  12.6700  12.8005  13.2523
    13.3337  14.6153  15.2364  15.3046

          k = 0.3778 0.5004 0.0000 (  2702 PWs)   bands (ev):

   -18.5955 -12.4158 -10.5760  -4.1692   0.5975   8.3862   8.8255   9.7080
    10.8570  11.2114  11.4872  11.6039  11.7690  12.7882  12.8969  13.3651
    13.4187  14.4352  15.1867  15.2969

          k = 0.3722 0.5100 0.0000 (  2699 PWs)   bands (ev):

   -18.5689 -12.3658 -10.7038  -4.1158   0.5815   8.3034   8.9645   9.8299
    11.0075  11.3359  11.6172  11.7352  11.8806  12.9113  12.9985  13.4777
    13.5061  14.2402  15.1290  15.1493

          k = 0.3667 0.5196 0.0000 (  2697 PWs)   bands (ev):

   -18.5444 -12.3214 -10.8223  -4.0632   0.5642   8.2296   9.0885   9.9558
    11.1415  11.4659  11.7525  11.8684  11.9985  13.0380  13.1024  13.5841
    13.5903  14.0569  14.9049  14.9246

          k = 0.3611 0.5292 0.0000 (  2699 PWs)   bands (ev):

   -18.5224 -12.2795 -10.9277  -4.0222   0.5461   8.1658   9.1980  10.0849
    11.2476  11.6005  11.8929  12.0025  12.1215  13.1650  13.2094  13.6604
    13.6644  13.9211  14.6088  14.6410

          k = 0.3556 0.5389 0.0000 (  2693 PWs)   bands (ev):

   -18.5027 -12.2362 -11.0187  -3.9828   0.5292   8.1130   9.2954  10.2148
    11.3110  11.7394  12.0382  12.1382  12.2480  13.2840  13.3193  13.6560
    13.6938  13.8989  14.2901  14.4147

          k = 0.3500 0.5485 0.0000 (  2701 PWs)   bands (ev):

   -18.4878 -12.2066 -11.0969  -3.9564   0.5126   8.0719   9.3726  10.3379
    11.3245  11.8808  12.1872  12.2783  12.3742  13.3554  13.4164  13.5627
    13.6781  13.9467  14.0342  14.2834

          k = 0.3444 0.5581 0.0000 (  2703 PWs)   bands (ev):

   -18.4754 -12.1829 -11.1521  -3.9355   0.4987   8.0427   9.4354  10.4491
    11.2961  12.0217  12.3401  12.4257  12.4913  13.2812  13.3203  13.5526
    13.7129  13.8948  14.0123  14.2443

          k = 0.3389 0.5677 0.0000 (  2707 PWs)   bands (ev):

   -18.4685 -12.1718 -11.1873  -3.9213   0.4896   8.0255   9.4757  10.5308
    11.2498  12.1510  12.4961  12.5744  12.5794  13.0355  13.1247  13.6289
    13.8134  13.8975  14.0170  14.2186

          k = 0.3333 0.5774 0.0000 (  2709 PWs)   bands (ev):

   -18.4664 -12.1698 -11.2001  -3.9154   0.4863   8.0199   9.4904  10.5613
    11.2264  12.2211  12.5880  12.6343  12.6927  12.7851  13.0535  13.6701
    13.8789  13.9158  13.9998  14.1839

          k = 0.3222 0.5581 0.0000 (  2709 PWs)   bands (ev):

   -18.4775 -12.1799 -11.1592  -3.9393   0.5023   8.0405   9.4078  10.4704
    11.3147  11.8841  12.0465  12.7409  12.9908  13.0675  13.1451  13.4535
    13.6794  13.9216  14.0653  14.3932

          k = 0.3111 0.5389 0.0000 (  2707 PWs)   bands (ev):

   -18.5132 -12.2007 -11.0547  -4.0067   0.5578   8.0953   9.1351  10.3561
    11.2878  11.3275  11.5830  12.6890  12.9002  13.2258  13.3620  13.4768
    13.7730  13.8373  14.2756  14.7164

          k = 0.3000 0.5196 0.0000 (  2699 PWs)   bands (ev):

   -18.5737 -12.1997 -10.9032  -4.1257   0.6568   8.1673   8.7209  10.2800
    10.7270  10.7700  11.5693  12.2159  12.5040  13.5087  13.5517  13.7455
    14.0333  14.0669  14.5293  14.8695

          k = 0.2889 0.5004 0.0000 (  2705 PWs)   bands (ev):

   -18.6618 -12.1780 -10.7303  -4.2943   0.8037   8.2253   8.2354  10.0157
    10.2547  10.3242  11.3468  11.7089  12.1960  13.5370  13.8507  14.1144
    14.2604  14.4347  14.6655  14.8101

          k = 0.2778 0.4811 0.0000 (  2713 PWs)   bands (ev):

   -18.7766 -12.1177 -10.5338  -4.5107   0.9953   7.7274   8.2160   9.4576
     9.8151  10.2070  10.9387  11.2448  11.9288  13.7071  13.7123  14.2586
    14.5059  14.6183  14.8841  15.0970

          k = 0.2667 0.4619 0.0000 (  2717 PWs)   bands (ev):

   -18.9149 -12.0165 -10.3177  -4.7595   1.2276   7.2172   8.0734   8.8887
     9.4714  10.0730  10.4809  10.8740  11.6458  13.3066  13.7646  14.1388
    14.9194  14.9905  15.3621  15.5082

          k = 0.2556 0.4426 0.0000 (  2723 PWs)   bands (ev):

   -19.0731 -11.8770 -10.0859  -5.0312   1.4919   6.7138   7.7835   8.3372
     9.1744   9.8169  10.0977  10.6477  11.3559  12.9013  13.3825  14.4724
    15.3505  15.4163  15.8633  15.9103

          k = 0.2444 0.4234 0.0000 (  2717 PWs)   bands (ev):

   -19.2461 -11.6955  -9.8460  -5.3107   1.7927   6.2247   7.4028   7.8073
     8.8437   9.3933   9.8513  10.5613  11.0729  12.5573  12.9694  14.8795
    15.6464  15.8557  16.1606  16.3726

          k = 0.2333 0.4041 0.0000 (  2723 PWs)   bands (ev):

   -19.4316 -11.4828  -9.6028  -5.6055   2.1143   5.7503   6.9877   7.2996
     8.4669   8.9318   9.6166  10.5177  10.7935  12.3322  12.5738  15.2907
    15.5103  16.1179  16.4328  16.5366

          k = 0.2222 0.3849 0.0000 (  2719 PWs)   bands (ev):

   -19.6246 -11.2364  -9.3457  -5.9009   2.4513   5.2939   6.5699   6.8149
     8.0705   8.4771   9.3772  10.4054  10.5175  12.2066  12.2774  15.2164
    15.5879  15.8784  16.8697  17.0341

          k = 0.2111 0.3657 0.0000 (  2723 PWs)   bands (ev):

   -19.8222 -10.9624  -9.0873  -6.2019   2.7920   4.8566   6.1657   6.3534
     7.6750   8.0378   9.1280  10.1896  10.2373  11.8684  12.3754  14.9341
    15.3170  16.0634  17.3775  17.5550

          k = 0.2000 0.3464 0.0000 (  2727 PWs)   bands (ev):

   -20.0222 -10.6667  -8.8200  -6.4992   3.1265   4.4385   5.7878   5.9151
     7.2942   7.6167   8.8818   9.9072   9.9528  11.5607  12.5367  14.7292
    14.9211  16.1957  17.9094  18.0474

          k = 0.1889 0.3272 0.0000 (  2711 PWs)   bands (ev):

   -20.2184 -10.3380  -8.5442  -6.7843   3.4418   4.0427   5.4510   5.5005
     6.9382   7.2169   8.6439   9.5995   9.6690  11.2804  12.6547  14.5215
    14.6660  16.1178  18.3471  18.4611

          k = 0.1778 0.3079 0.0000 (  2717 PWs)   bands (ev):

   -20.4126 -10.0080  -8.2688  -7.0696   3.6669   3.6868   5.1093   5.1822
     6.6186   6.8375   8.4137   9.2904   9.3825  11.0207  12.6526  14.1159
    14.7891  15.8376  18.3026  18.9678

          k = 0.1667 0.2887 0.0000 (  2717 PWs)   bands (ev):

   -20.6017  -9.6507  -7.9935  -7.3430   3.3125   3.7994   4.7416   5.0213
     6.3556   6.4797   8.1986   8.9953   9.1001  10.7762  12.5352  13.7090
    15.0700  15.4606  18.1444  19.0599

          k = 0.1556 0.2694 0.0000 (  2713 PWs)   bands (ev):

   -20.7830  -9.2846  -7.7189  -7.6013   2.9797   3.7470   4.3974   4.9695
     6.1438   6.1878   8.0025   8.7244   8.8268  10.5426  12.3528  13.2949
    15.0420  15.4285  18.0079  18.9155

          k = 0.1444 0.2502 0.0000 (  2697 PWs)   bands (ev):

   -20.9548  -8.8931  -7.8439  -7.4449   2.6700   3.5765   4.0770   4.9190
     5.8310   6.1597   7.8248   8.4879   8.5673  10.3137  12.1465  12.8735
    14.6310  15.7764  17.9647  18.6895

          k = 0.1333 0.2309 0.0000 (  2707 PWs)   bands (ev):

   -21.1192  -8.5188  -8.0775  -7.1880   2.3804   3.3571   3.7800   4.7923
     5.5394   6.2487   7.6648   8.2983   8.3216  10.0845  11.9389  12.4365
    14.2294  16.0227  18.0871  18.4454

          k = 0.1222 0.2117 0.0000 (  2707 PWs)   bands (ev):

   -21.2729  -8.2939  -8.1349  -6.9277   2.1126   3.1308   3.5066   4.6181
     5.2702   6.3826   7.5249   8.0966   8.1743   9.8533  11.7429  11.9939
    13.8631  16.1204  18.2049  18.4104

          k = 0.1111 0.1925 0.0000 (  2709 PWs)   bands (ev):

   -21.4153  -8.4939  -7.7526  -6.6768   1.8669   2.9117   3.2568   4.4272
     5.0238   6.4826   7.4002   7.8964   8.1337   9.6149  11.5538  11.5664
    13.5341  16.1025  17.9757  18.8894

          k = 0.1000 0.1732 0.0000 (  2707 PWs)   bands (ev):

   -21.5447  -8.6718  -7.3795  -6.4426   1.6432   2.7078   3.0306   4.2400
     4.8000   6.5172   7.2880   7.7288   8.1797   9.3667  11.1341  11.4145
    13.2428  16.0273  17.7616  19.4502

          k = 0.0889 0.1540 0.0000 (  2711 PWs)   bands (ev):

   -21.6628  -8.8368  -7.0129  -6.2280   1.4416   2.5211   2.8281   4.0637
     4.5989   6.4885   7.1804   7.5980   8.2900   9.1004  10.7486  11.2900
    12.9865  15.9301  17.5649  20.0232

          k = 0.0778 0.1347 0.0000 (  2709 PWs)   bands (ev):

   -21.7677  -8.9820  -6.6583  -6.0234   1.2621   2.3547   2.6492   3.9045
     4.4206   6.4245   7.0725   7.5082   8.4327   8.8208  10.4070  11.1955
    12.7614  15.8311  17.3870  20.5302

          k = 0.0667 0.1155 0.0000 (  2727 PWs)   bands (ev):

   -21.8601  -9.1110  -6.3535  -5.8470   1.1046   2.2087   2.4939   3.7634
     4.2651   6.3434   6.9647   7.4511   8.5262   8.5718  10.1127  11.1309
    12.5648  15.7397  17.2289  20.8821

          k = 0.0556 0.0962 0.0000 (  2727 PWs)   bands (ev):

   -21.9380  -9.2175  -6.0607  -5.6878   0.9700   2.0850   2.3623   3.6433
     4.1327   6.2637   6.8643   7.4294   8.2458   8.6970   9.8719  11.0947
    12.3984  15.6607  17.0924  21.0604

          k = 0.0444 0.0770 0.0000 (  2733 PWs)   bands (ev):

   -22.0022  -9.3073  -5.8065  -5.5607   0.8585   1.9830   2.2545   3.5439
     4.0238   6.1907   6.7753   7.4274   7.9870   8.7936   9.6777  11.0810
    12.2611  15.5958  16.9785  21.1292

          k = 0.0333 0.0577 0.0000 (  2747 PWs)   bands (ev):

   -22.0529  -9.3824  -5.6089  -5.4589   0.7705   1.9028   2.1706   3.4653
     3.9383   6.1285   6.7014   7.4355   7.7694   8.8579   9.5247  11.0815
    12.1526  15.5452  16.8883  21.1477

          k = 0.0222 0.0385 0.0000 (  2747 PWs)   bands (ev):

   -22.0888  -9.4314  -5.4509  -5.3823   0.7069   1.8460   2.1105   3.4097
     3.8769   6.0843   6.6458   7.4524   7.6068   8.9037   9.4134  11.0899
    12.0742  15.5101  16.8230  21.1360

          k = 0.0111 0.0192 0.0000 (  2749 PWs)   bands (ev):

   -22.1103  -9.4608  -5.3588  -5.3378   0.6683   1.8118   2.0744   3.3762
     3.8398   6.0573   6.6109   7.4664   7.5066   8.9290   9.3453  11.0980
    12.0268  15.4893  16.7835  21.0669

          k = 0.0000 0.0000 0.0000 (  2731 PWs)   bands (ev):

   -22.1162  -9.4685  -5.3071  -5.3071   0.6556   1.8007   2.0624   3.3654
     3.8276   6.0487   6.5993   7.4779   7.4779   8.9384   9.3230  11.1015
    12.0110  15.4826  16.7702  21.0437

          k = 0.0000 0.0000 0.0714 (  2730 PWs)   bands (ev):

   -22.1166  -9.4572  -5.3207  -5.3207   0.6593   1.6731   2.4340   2.7829
     4.5952   5.1215   7.4714   7.4714   7.6238   8.0952   9.9033  10.4399
    13.0522  14.1859  18.2124  19.6161

          k = 0.0167 0.0096 0.0714 (  2732 PWs)   bands (ev):

   -22.1113  -9.4527  -5.3443  -5.3274   0.6690   1.6815   2.4421   2.7921
     4.6022   5.1309   7.4634   7.4984   7.6234   8.1121   9.8863  10.4550
    13.0551  14.1961  18.2168  19.6275

          k = 0.0333 0.0192 0.0714 (  2726 PWs)   bands (ev):

   -22.0947  -9.4288  -5.4100  -5.3614   0.6980   1.7077   2.4680   2.8195
     4.6264   5.1592   7.4419   7.5746   7.6338   8.1620   9.8584  10.5012
    13.0664  14.2268  18.2308  19.6615

          k = 0.0500 0.0289 0.0714 (  2718 PWs)   bands (ev):

   -22.0672  -9.3883  -5.5306  -5.4115   0.7460   1.7515   2.5112   2.8652
     4.6667   5.2058   7.4099   7.6488   7.7038   8.2402   9.8117  10.5771
    13.0861  14.2776  18.2539  19.7171

          k = 0.0667 0.0385 0.0714 (  2730 PWs)   bands (ev):

   -22.0306  -9.3405  -5.7009  -5.4977   0.8121   1.8119   2.5705   2.9287
     4.7206   5.2700   7.3647   7.6595   7.8769   8.3416   9.7435  10.6802
    13.1154  14.3480  18.2839  19.7929

          k = 0.0833 0.0481 0.0714 (  2728 PWs)   bands (ev):

   -21.9822  -9.2743  -5.9027  -5.5924   0.8966   1.8899   2.6472   3.0103
     4.7907   5.3515   7.3186   7.6709   8.0955   8.4665   9.6714  10.8118
    13.1569  14.4375  18.3208  19.8874

          k = 0.1000 0.0577 0.0714 (  2724 PWs)   bands (ev):

   -21.9235  -9.1944  -6.1344  -5.7024   0.9982   1.9851   2.7407   3.1094
     4.8750   5.4489   7.2721   7.6721   8.3571   8.6107   9.5973  10.9682
    13.2115  14.5454  18.3614  19.9985

          k = 0.1167 0.0674 0.0714 (  2716 PWs)   bands (ev):

   -21.8541  -9.0994  -6.4007  -5.8137   1.1168   2.0972   2.8509   3.2260
     4.9725   5.5611   7.2267   7.6537   8.6629   8.7719   9.5308  11.1465
    13.2805  14.6706  18.4018  20.1244

          k = 0.1333 0.0770 0.0714 (  2716 PWs)   bands (ev):

   -21.7750  -8.9929  -6.6974  -5.9518   1.2518   2.2260   2.9771   3.3600
     5.0811   5.6864   7.1844   7.6060   8.9497   9.0021   9.4865  11.3455
    13.3644  14.8123  18.4337  20.2627

          k = 0.1500 0.0866 0.0714 (  2714 PWs)   bands (ev):

   -21.6857  -8.8691  -7.0173  -6.0942   1.4029   2.3714   3.1194   3.5110
     5.1988   5.8220   7.1484   7.5223   9.1427   9.3763   9.4749  11.5619
    13.4639  14.9693  18.4473  20.4111

          k = 0.1667 0.0962 0.0714 (  2718 PWs)   bands (ev):

   -21.5874  -8.7342  -7.3557  -6.2464   1.5698   2.5325   3.2767   3.6789
     5.3195   5.9640   7.1206   7.4032   9.3493   9.5046   9.7771  11.7925
    13.5779  15.1404  18.4224  20.5645

          k = 0.1833 0.1058 0.0714 (  2710 PWs)   bands (ev):

   -21.4786  -8.5795  -7.7072  -6.3925   1.7525   2.7094   3.4489   3.8635
     5.4363   6.1057   7.1135   7.2626   9.5703   9.5767  10.2147  12.0354
    13.7066  15.3241  18.3393  20.5606

          k = 0.2000 0.1155 0.0714 (  2712 PWs)   bands (ev):

   -21.3617  -8.4185  -8.0742  -6.5435   1.9501   2.8990   3.6327   4.0645
     5.5292   6.2365   7.1213   7.1376   9.6878   9.8033  10.6749  12.2844
    13.8466  15.5186  18.1783  20.3576

          k = 0.2167 0.1251 0.0714 (  2696 PWs)   bands (ev):

   -21.2349  -8.4326  -8.2397  -6.6904   2.1634   3.1005   3.8270   4.2816
     5.5804   6.3430   7.0255   7.2072   9.8334  10.0514  11.1649  12.5429
    13.9967  15.7221  17.9481  20.2414

          k = 0.2333 0.1347 0.0714 (  2702 PWs)   bands (ev):

   -21.1011  -8.8128  -8.0548  -6.8445   2.3910   3.3055   4.0234   4.5140
     5.5579   6.4150   7.0050   7.3314  10.0076  10.3104  11.6608  12.7964
    14.1511  15.9292  17.6669  19.8494

          k = 0.2500 0.1443 0.0714 (  2706 PWs)   bands (ev):

   -20.9594  -9.1943  -7.8568  -6.9942   2.6329   3.5010   4.2134   4.7606
     5.4820   6.4574   7.0817   7.5103  10.2071  10.5819  12.1712  13.0419
    14.3051  16.1339  17.3658  19.2208

          k = 0.2667 0.1540 0.0714 (  2698 PWs)   bands (ev):

   -20.8102  -9.5655  -7.6436  -7.1358   2.8886   3.6553   4.3880   5.0198
     5.4243   6.4829   7.2391   7.7331  10.4284  10.8661  12.6989  13.2732
    14.4482  16.3240  17.0672  18.6195

          k = 0.2833 0.1636 0.0714 (  2702 PWs)   bands (ev):

   -20.6570  -9.9449  -7.4226  -7.2750   3.1555   3.7010   4.5601   5.2873
     5.4606   6.5073   7.4525   7.9897  10.6683  11.1576  13.2304  13.4628
    14.5635  16.4708  16.7887  18.0876

          k = 0.3000 0.1732 0.0714 (  2710 PWs)   bands (ev):

   -20.4989 -10.3210  -7.3997  -7.1949   3.4328   3.5861   4.7738   5.5557
     5.6138   6.5442   7.7051   8.2723  10.9239  11.4540  13.5908  13.7651
    14.6258  16.5161  16.5432  17.6801

          k = 0.3167 0.1828 0.0714 (  2716 PWs)   bands (ev):

   -20.3371 -10.6796  -7.5343  -6.9564   3.3539   3.7191   5.0426   5.8099
     5.8525   6.6163   7.9876   8.5778  11.1922  11.7531  13.6396  14.3011
    14.6055  16.3289  16.3934  17.0841

          k = 0.3333 0.1925 0.0714 (  2722 PWs)   bands (ev):

   -20.1732 -11.0279  -7.6565  -6.7137   3.0527   4.0110   5.3517   6.0242
     6.1432   6.7559   8.2942   8.9036  11.4684  12.0397  13.5866  14.4784
    14.8335  16.0469  16.1383  16.5455

          k = 0.3500 0.2021 0.0714 (  2718 PWs)   bands (ev):

   -20.0090 -11.3537  -7.7646  -6.4654   2.7231   4.3020   5.6904   6.1834
     6.4688   6.9852   8.6213   9.2486  11.7456  12.2742  13.4637  14.2497
    15.3607  15.5349  15.7947  16.2505

          k = 0.3667 0.2117 0.0714 (  2730 PWs)   bands (ev):

   -19.8482 -11.6738  -7.8615  -6.2251   2.3752   4.5818   6.0526   6.3101
     6.8208   7.2895   8.9658   9.6093  12.0086  12.3308  13.4042  13.9427
    14.9375  15.3418  15.8669  15.9914

          k = 0.3833 0.2213 0.0714 (  2732 PWs)   bands (ev):

   -19.6913 -11.9621  -7.9469  -5.9859   2.0322   4.8405   6.4354   6.4439
     7.1947   7.6434   9.3250   9.9847  12.1219  12.2227  13.5439  13.6018
    14.3527  14.8190  15.6755  16.3516

          k = 0.4000 0.2309 0.0714 (  2736 PWs)   bands (ev):

   -19.5440 -12.2303  -8.0260  -5.7522   1.7079   5.0605   6.6170   6.8368
     7.5884   8.0307   9.6962  10.3661  11.7474  12.3001  13.2891  13.7628
    13.8366  14.3159  15.3278  16.1074

          k = 0.4167 0.2406 0.0714 (  2730 PWs)   bands (ev):

   -19.4069 -12.4598  -8.0927  -5.5310   1.4058   5.2322   6.8467   7.2551
     7.9995   8.4434  10.0725  10.7115  11.3605  12.1203  12.9542  13.5538
    13.5620  14.2792  14.9811  15.7447

          k = 0.4333 0.2502 0.0714 (  2736 PWs)   bands (ev):

   -19.2873 -12.6679  -8.1499  -5.3266   1.1352   5.3513   7.1363   7.6891
     8.4267   8.8755  10.4375  10.6528  11.3607  11.7557  12.4852  13.0189
    13.5504  14.5364  14.6836  15.3695

          k = 0.4500 0.2598 0.0714 (  2728 PWs)   bands (ev):

   -19.1868 -12.8247  -8.1899  -5.1564   0.9103   5.4307   7.4782   8.1355
     8.8662   9.3201  10.2354  10.7091  11.3914  11.7329  12.0007  12.4739
    13.4886  14.5276  14.5285  15.2757

          k = 0.4667 0.2694 0.0714 (  2720 PWs)   bands (ev):

   -19.1110 -12.9430  -8.2098  -5.0237   0.7399   5.4777   7.8564   8.5895
     9.3111   9.6335   9.9289  10.5853  11.2257  11.6995  11.8561  12.2397
    13.2545  14.1431  14.5460  15.5458

          k = 0.4833 0.2791 0.0714 (  2710 PWs)   bands (ev):

   -19.0634 -13.0128  -8.2261  -4.9295   0.6327   5.5028   8.2464   9.0320
     9.2800   9.7173  10.2286  10.3261  10.8624  11.3541  11.8746  12.6548
    12.9492  13.6899  14.6190  15.8537

          k = 0.5000 0.2887 0.0714 (  2716 PWs)   bands (ev):

   -19.0490 -13.0402  -8.2356  -4.9014   0.5946   5.5111   8.5017   9.0108
     9.3132   9.7720  10.2040  10.5567  10.7529  10.9079  12.0373  12.7720
    12.9696  13.3656  14.6526  16.0049

          k = 0.4944 0.2983 0.0714 (  2722 PWs)   bands (ev):

   -19.0484 -13.0377  -8.2449  -4.9071   0.5932   5.5219   8.5047   9.0143
     9.3124   9.7746  10.2057  10.5591  10.7559  10.9109  12.0358  12.7741
    12.9725  13.3684  14.6453  16.0070

          k = 0.4889 0.3079 0.0714 (  2726 PWs)   bands (ev):

   -19.0450 -13.0363  -8.2681  -4.9023   0.5946   5.5536   8.5111   9.0246
     9.3145   9.7827  10.2120  10.5666  10.7638  10.9198  12.0344  12.7807
    12.9783  13.3769  14.6266  16.0066

          k = 0.4833 0.3175 0.0714 (  2738 PWs)   bands (ev):

   -19.0408 -13.0356  -8.3114  -4.9001   0.5979   5.6069   8.5211   9.0417
     9.3171   9.7962  10.2223  10.5789  10.7770  10.9346  12.0315  12.7915
    12.9876  13.3909  14.5959  16.0054

          k = 0.4778 0.3272 0.0714 (  2728 PWs)   bands (ev):

   -19.0312 -13.0216  -8.3534  -4.8851   0.6026   5.6817   8.5393   9.0660
     9.3217   9.8151  10.2371  10.5964  10.7966  10.9555  12.0279  12.8071
    13.0042  13.4107  14.5553  16.0109

          k = 0.4722 0.3368 0.0714 (  2728 PWs)   bands (ev):

   -19.0205 -13.0092  -8.4212  -4.8669   0.6078   5.7759   8.5609   9.0972
     9.3260   9.8394  10.2560  10.6189  10.8213  10.9823  12.0225  12.8274
    13.0239  13.4361  14.5060  16.0142

          k = 0.4667 0.3464 0.0714 (  2728 PWs)   bands (ev):

   -19.0074 -12.9934  -8.4966  -4.8493   0.6125   5.8886   8.5876   9.1356
     9.3283   9.8691  10.2787  10.6465  10.8516  11.0150  12.0146  12.8523
    13.0482  13.4670  14.4506  16.0187

          k = 0.4611 0.3560 0.0714 (  2720 PWs)   bands (ev):

   -18.9912 -12.9707  -8.5841  -4.8231   0.6182   6.0201   8.6204   9.1813
     9.3288   9.9041  10.3056  10.6793  10.8878  11.0537  12.0050  12.8823
    13.0778  13.5036  14.3930  16.0246

          k = 0.4556 0.3657 0.0714 (  2712 PWs)   bands (ev):

   -18.9735 -12.9472  -8.6804  -4.7937   0.6243   6.1682   8.6572   9.2344
     9.3253   9.9446  10.3367  10.7174  10.9292  11.0984  11.9937  12.9174
    13.1109  13.5457  14.3371  16.0293

          k = 0.4500 0.3753 0.0714 (  2716 PWs)   bands (ev):

   -18.9541 -12.9206  -8.7991  -4.7664   0.6293   6.3292   8.6989   9.2952
     9.3147   9.9905  10.3718  10.7608  10.9760  11.1490  11.9812  12.9577
    13.1480  13.5932  14.2865  16.0306

          k = 0.4444 0.3849 0.0714 (  2704 PWs)   bands (ev):

   -18.9320 -12.8928  -8.9065  -4.7263   0.6362   6.5055   8.7454   9.2982
     9.3642  10.0420  10.4120  10.8099  11.0282  11.2056  11.9699  13.0039
    13.1891  13.6462  14.2449  16.0306

          k = 0.4389 0.3945 0.0714 (  2712 PWs)   bands (ev):

   -18.9100 -12.8700  -9.0363  -4.6904   0.6412   6.6908   8.7935   9.2707
     9.4410  10.0990  10.4570  10.8646  11.0847  11.2681  11.9609  13.0556
    13.2307  13.7043  14.2146  16.0191

          k = 0.4333 0.4041 0.0714 (  2716 PWs)   bands (ev):

   -18.8855 -12.8416  -9.1701  -4.6519   0.6458   6.8856   8.8477   9.2321
     9.5265  10.1615  10.5076  10.9251  11.1469  11.3366  11.9568  13.1131
    13.2771  13.7678  14.1973  16.0042

          k = 0.4278 0.4138 0.0714 (  2718 PWs)   bands (ev):

   -18.8594 -12.8082  -9.3100  -4.6115   0.6485   7.0884   8.9079   9.1807
     9.6210  10.2299  10.5642  10.9916  11.2148  11.4110  11.9597  13.1766
    13.3278  13.8363  14.1936  15.9804

          k = 0.4222 0.4234 0.0714 (  2710 PWs)   bands (ev):

   -18.8311 -12.7705  -9.4468  -4.5633   0.6513   7.2975   8.9739   9.1182
     9.7252  10.3040  10.6276  11.0642  11.2882  11.4914  11.9719  13.2463
    13.3826  13.9098  14.2033  15.9438

          k = 0.4167 0.4330 0.0714 (  2702 PWs)   bands (ev):

   -18.8020 -12.7317  -9.5830  -4.5146   0.6527   7.5105   9.0439   9.0446
     9.8395  10.3841  10.6978  11.1429  11.3667  11.5778  11.9945  13.3220
    13.4397  13.9880  14.2259  15.8852

          k = 0.4111 0.4426 0.0714 (  2702 PWs)   bands (ev):

   -18.7727 -12.6886  -9.7339  -4.4669   0.6512   7.7196   8.9591   9.1212
     9.9630  10.4700  10.7752  11.2277  11.4506  11.6699  12.0284  13.4035
    13.5000  14.0705  14.2602  15.7919

          k = 0.4056 0.4523 0.0714 (  2698 PWs)   bands (ev):

   -18.7423 -12.6435  -9.8789  -4.4181   0.6481   7.9277   8.8669   9.2039
    10.0972  10.5619  10.8599  11.3187  11.5397  11.7679  12.0737  13.4907
    13.5630  14.1568  14.3048  15.6571

          k = 0.4000 0.4619 0.0714 (  2698 PWs)   bands (ev):

   -18.7124 -12.5979 -10.0272  -4.3672   0.6428   8.1286   8.7698   9.2921
    10.2405  10.6598  10.9519  11.4159  11.6338  11.8715  12.1303  13.5837
    13.6273  14.2463  14.3581  15.4819

          k = 0.3944 0.4715 0.0714 (  2700 PWs)   bands (ev):

   -18.6820 -12.5521 -10.1646  -4.3266   0.6343   8.3223   8.6700   9.3862
    10.3935  10.7634  11.0510  11.5188  11.7326  11.9806  12.1976  13.6812
    13.6921  14.3379  14.4181  15.2729

          k = 0.3889 0.4811 0.0714 (  2704 PWs)   bands (ev):

   -18.6523 -12.5053 -10.3090  -4.2786   0.6238   8.5032   8.5714   9.4873
    10.5521  10.8731  11.1571  11.6280  11.8364  12.0947  12.2747  13.7577
    13.7840  14.4299  14.4820  15.0419

          k = 0.3833 0.4907 0.0714 (  2700 PWs)   bands (ev):

   -18.6231 -12.4574 -10.4440  -4.2263   0.6114   8.4762   8.6735   9.5958
    10.7155  10.9889  11.2701  11.7434  11.9454  12.2133  12.3607  13.8234
    13.8909  14.5186  14.5456  14.8067

          k = 0.3778 0.5004 0.0714 (  2704 PWs)   bands (ev):

   -18.5960 -12.4139 -10.5767  -4.1771   0.5968   8.3862   8.8269   9.7098
    10.8769  11.1104  11.3897  11.8645  12.0586  12.3355  12.4547  13.8837
    13.9995  14.5443  14.6004  14.6335

          k = 0.3722 0.5100 0.0714 (  2698 PWs)   bands (ev):

   -18.5692 -12.3627 -10.6984  -4.1288   0.5805   8.3035   8.9686   9.8323
    11.0305  11.2376  11.5158  11.9912  12.1776  12.4599  12.5553  13.9352
    14.1049  14.3580  14.6278  14.6894

          k = 0.3667 0.5196 0.0714 (  2714 PWs)   bands (ev):

   -18.5458 -12.3228 -10.8256  -4.0871   0.5620   8.2294   9.0861   9.9558
    11.1595  11.3702  11.6480  12.1233  12.2996  12.5840  12.6607  13.9412
    14.1878  14.2213  14.5863  14.7372

          k = 0.3611 0.5292 0.0714 (  2714 PWs)   bands (ev):

   -18.5234 -12.2790 -10.9309  -4.0464   0.5438   8.1657   9.1966  10.0855
    11.2615  11.5082  11.7860  12.2602  12.4261  12.7060  12.7682  13.8725
    14.1602  14.1989  14.4929  14.7372

          k = 0.3556 0.5389 0.0714 (  2720 PWs)   bands (ev):

   -18.5048 -12.2435 -11.0222  -4.0150   0.5254   8.1127   9.2900  10.2136
    11.3213  11.6506  11.9292  12.4007  12.5542  12.8245  12.8724  13.7888
    13.9340  14.2268  14.4366  14.6552

          k = 0.3500 0.5485 0.0714 (  2718 PWs)   bands (ev):

   -18.4886 -12.2118 -11.0967  -3.9814   0.5093   8.0717   9.3701  10.3377
    11.3317  11.7972  12.0767  12.5425  12.6827  12.9409  12.9598  13.6466
    13.7298  14.2295  14.2734  14.5401

          k = 0.3444 0.5581 0.0714 (  2714 PWs)   bands (ev):

   -18.4769 -12.1820 -11.1515  -3.9590   0.4961   8.0426   9.4355  10.4499
    11.3002  11.9447  12.2257  12.6738  12.8107  12.9904  13.0561  13.3989
    13.6697  14.0567  14.1502  14.5150

          k = 0.3389 0.5677 0.0714 (  2716 PWs)   bands (ev):

   -18.4694 -12.1689 -11.1859  -3.9446   0.4870   8.0255   9.4771  10.5321
    11.2530  12.0851  12.3663  12.7180  12.9322  12.9506  13.1564  13.2732
    13.5594  13.8808  14.0773  14.5554

          k = 0.3333 0.5774 0.0714 (  2712 PWs)   bands (ev):

   -18.4666 -12.1631 -11.1967  -3.9340   0.4844   8.0199   9.4941  10.5640
    11.2289  12.1704  12.4370  12.6381  12.9831  13.0122  13.1845  13.2209
    13.4809  13.8188  14.0635  14.5837

          k = 0.3222 0.5581 0.0714 (  2720 PWs)   bands (ev):

   -18.4781 -12.1810 -11.1582  -3.9613   0.4999   8.0405   9.4078  10.4729
    11.3198  11.7459  12.3835  12.6168  12.7490  13.0188  13.3761  13.4479
    13.5749  13.9359  14.1002  14.4957

          k = 0.3111 0.5389 0.0714 (  2700 PWs)   bands (ev):

   -18.5118 -12.1941 -11.0461  -4.0195   0.5568   8.0953   9.1403  10.3653
    11.1295  11.4396  11.8901  12.0952  13.0526  13.3385  13.4832  13.6519
    13.7362  14.0144  14.2770  14.3623

          k = 0.3000 0.5196 0.0714 (  2712 PWs)   bands (ev):

   -18.5746 -12.2051 -10.9020  -4.1445   0.6551   8.1669   8.7186  10.2955
    10.5207  11.2306  11.3459  11.8253  13.2121  13.3127  13.5799  13.8197
    13.8573  14.1282  14.2708  14.7094

          k = 0.2889 0.5004 0.0714 (  2702 PWs)   bands (ev):

   -18.6616 -12.1725 -10.7249  -4.3078   0.8028   8.2244   8.2389   9.9417
    10.2129  10.7471  10.8375  11.7055  12.8396  13.1417  13.6989  13.9290
    14.2356  14.3609  14.6671  15.1235

          k = 0.2778 0.4811 0.0714 (  2714 PWs)   bands (ev):

   -18.7774 -12.1193 -10.5316  -4.5161   0.9947   7.7290   8.2128   9.4071
     9.9703  10.3569  10.4072  11.4671  12.3753  12.8323  13.7994  14.3366
    14.6620  14.6912  15.0569  15.3973

          k = 0.2667 0.4619 0.0714 (  2720 PWs)   bands (ev):

   -18.9156 -12.0215 -10.3156  -4.7591   1.2276   7.2176   8.0593   8.9269
     9.4976  10.0995  10.1759  11.1407  11.9430  12.4579  14.0898  14.6391
    15.0147  15.0249  15.2901  15.5853

          k = 0.2556 0.4426 0.0714 (  2712 PWs)   bands (ev):

   -19.0728 -11.8752 -10.0868  -5.0198   1.4994   6.7161   7.7435   8.4843
     8.9796   9.9115  10.0176  10.7723  11.5965  12.0939  14.4582  14.4643
    15.0366  15.3918  15.5761  15.7198

          k = 0.2444 0.4234 0.0714 (  2708 PWs)   bands (ev):

   -19.2451 -11.6941  -9.8452  -5.2984   1.7983   6.2266   7.3314   8.0479
     8.4681   9.7473   9.8336  10.3825  11.3935  11.7612  14.1043  14.6461
    14.8841  15.8696  15.9600  16.2313

          k = 0.2333 0.4041 0.0714 (  2706 PWs)   bands (ev):

   -19.4304 -11.4779  -9.5979  -5.5895   2.1189   5.7527   6.8880   7.6109
     7.9733   9.5116   9.6198   9.9853  11.3543  11.4629  13.7639  14.2333
    15.2975  16.3642  16.4079  16.7650

          k = 0.2222 0.3849 0.0714 (  2708 PWs)   bands (ev):

   -19.6235 -11.2322  -9.3442  -5.8921   2.4559   5.2970   6.4450   7.1813
     7.4985   9.1997   9.3781   9.5944  11.1939  11.4101  13.4993  13.8205
    15.6796  16.7890  16.8863  17.2502

          k = 0.2111 0.3657 0.0714 (  2722 PWs)   bands (ev):

   -19.8223 -10.9649  -9.0837  -6.2002   2.7937   4.8587   6.0170   6.7683
     7.0444   8.8502   9.0977   9.2336  10.9457  11.4455  13.3730  13.4203
    15.9429  16.8384  17.3736  17.5133

          k = 0.2000 0.3464 0.0714 (  2718 PWs)   bands (ev):

   -20.0213 -10.6601  -8.8133  -6.4990   3.1271   4.4422   5.6126   6.3808
     6.6128   8.4935   8.7579   8.9464  10.7160  11.3756  13.0371  13.4274
    15.9807  16.6278  17.3515  17.9270

          k = 0.1889 0.3272 0.0714 (  2730 PWs)   bands (ev):

   -20.2193 -10.3461  -8.5509  -6.7936   3.4308   4.0457   5.2401   6.0294
     6.2035   8.1464   8.3967   8.6919  10.4920  11.1982  12.6700  13.6294
    15.7473  16.3986  17.2472  18.4750

          k = 0.1778 0.3079 0.0714 (  2734 PWs)   bands (ev):

   -20.4144 -10.0075  -8.2781  -7.0771   3.6695   3.6738   4.9134   5.7345
     5.8166   7.8202   8.0431   8.4616  10.2716  10.9598  12.3183  13.8909
    15.3558  16.2314  17.0697  19.0500

          k = 0.1667 0.2887 0.0714 (  2728 PWs)   bands (ev):

   -20.6023  -9.6537  -8.0006  -7.3463   3.3156   3.7861   4.6519   5.4528
     5.5373   7.5259   7.7057   8.2503  10.0596  10.7004  11.9814  14.1135
    14.8946  16.1923  16.8195  19.6531

          k = 0.1556 0.2694 0.0714 (  2720 PWs)   bands (ev):

   -20.7833  -9.2789  -7.7242  -7.6093   2.9839   3.7123   4.4426   5.1122
     5.4839   7.2778   7.3865   8.0586   9.8502  10.4416  11.6534  14.2146
    14.4067  16.3394  16.5379  20.0714

          k = 0.1444 0.2502 0.0714 (  2716 PWs)   bands (ev):

   -20.9556  -8.9036  -7.8542  -7.4507   2.6733   3.5167   4.2299   4.7945
     5.5410   7.0859   7.1004   7.8865   9.6441  10.1977  11.3295  13.8972
    14.1849  16.2488  16.6663  20.0993

          k = 0.1333 0.2309 0.0714 (  2714 PWs)   bands (ev):

   -21.1197  -8.5185  -8.0853  -7.1841   2.3839   3.2798   4.0004   4.4997
     5.5992   6.8044   7.0262   7.7374   9.4406   9.9768  11.0049  13.3942
    14.0725  15.9677  17.1036  20.0342

          k = 0.1222 0.2117 0.0714 (  2704 PWs)   bands (ev):

   -21.2725  -8.2940  -8.1287  -6.9223   2.1165   3.0410   3.7705   4.2280
     5.5867   6.5435   7.0722   7.6131   9.2438   9.7869  10.6740  12.9144
    13.9262  15.7014  17.5735  19.9964

          k = 0.1111 0.1925 0.0714 (  2720 PWs)   bands (ev):

   -21.4156  -8.4954  -7.7562  -6.6901   1.8707   2.8118   3.5485   3.9794
     5.4959   6.3035   7.2000   7.5092   9.0491   9.6351  10.3271  12.4653
    13.7710  15.4524  17.9917  20.0652

          k = 0.1000 0.1732 0.0714 (  2720 PWs)   bands (ev):

   -21.5462  -8.6762  -7.3782  -6.4549   1.6468   2.6001   3.3426   3.7540
     5.3673   6.0846   7.3565   7.4337   8.8648   9.5301   9.9723  12.0635
    13.6226  15.2232  18.2751  20.3202

          k = 0.0889 0.1540 0.0714 (  2712 PWs)   bands (ev):

   -21.6633  -8.8386  -7.0132  -6.2243   1.4456   2.4085   3.1558   3.5521
     5.2290   5.8881   7.3790   7.5072   8.6886   9.4824   9.6120  11.7144
    13.4881  15.0150  18.4007  20.4536

          k = 0.0778 0.1347 0.0714 (  2710 PWs)   bands (ev):

   -21.7680  -8.9826  -6.6606  -6.0224   1.2660   2.2376   2.9885   3.3732
     5.0914   5.7126   7.3505   7.6054   8.5147   9.2586   9.4873  11.4114
    13.3718  14.8276  18.4217  20.2770

          k = 0.0667 0.1155 0.0714 (  2730 PWs)   bands (ev):

   -21.8605  -9.1115  -6.3556  -5.8543   1.1085   2.0882   2.8418   3.2176
     4.9640   5.5590   7.3361   7.6536   8.3347   8.9287   9.5351  11.1524
    13.2747  14.6620  18.3941  20.1156

          k = 0.0556 0.0962 0.0714 (  2726 PWs)   bands (ev):

   -21.9374  -9.2129  -6.0679  -5.6946   0.9743   1.9621   2.7182   3.0857
     4.8548   5.4281   7.3422   7.6735   8.1485   8.6533   9.6139  10.9382
    13.1980  14.5197  18.3514  19.9722

          k = 0.0444 0.0770 0.0714 (  2730 PWs)   bands (ev):

   -22.0018  -9.3011  -5.8160  -5.5644   0.8624   1.8581   2.6160   2.9771
     4.7622   5.3192   7.3656   7.6674   7.9494   8.4414   9.6996  10.7605
    13.1396  14.4013  18.3060  19.8494

          k = 0.0333 0.0577 0.0714 (  2734 PWs)   bands (ev):

   -22.0522  -9.3711  -5.6052  -5.4614   0.7744   1.7771   2.5362   2.8924
     4.6890   5.2335   7.3981   7.6513   7.7565   8.2892   9.7784  10.6215
    13.0981  14.3078  18.2665  19.7498

          k = 0.0222 0.0385 0.0714 (  2728 PWs)   bands (ev):

   -22.0876  -9.4188  -5.4399  -5.3853   0.7108   1.7193   2.4794   2.8317
     4.6368   5.1716   7.4377   7.6043   7.6362   8.1837   9.8422  10.5214
    13.0712  14.2403  18.2370  19.6764

          k = 0.0111 0.0192 0.0714 (  2734 PWs)   bands (ev):

   -22.1096  -9.4503  -5.3525  -5.3363   0.6722   1.6844   2.4450   2.7951
     4.6048   5.1340   7.4608   7.5054   7.6244   8.1178   9.8828  10.4602
    13.0563  14.1995  18.2183  19.6313

          k = 0.0000 0.0000 0.0714 (  2730 PWs)   bands (ev):

   -22.1166  -9.4572  -5.3207  -5.3207   0.6593   1.6731   2.4340   2.7829
     4.5952   5.1215   7.4714   7.4714   7.6238   8.0952   9.9033  10.4399
    13.0522  14.1859  18.2124  19.6161

          k = 0.5000 0.2887 0.0714 (  2716 PWs)   bands (ev):

   -19.0490 -13.0402  -8.2356  -4.9014   0.5946   5.5111   8.5017   9.0108
     9.3132   9.7720  10.2040  10.5567  10.7529  10.9079  12.0373  12.7720
    12.9696  13.3656  14.6526  16.0049

          k = 0.5000 0.2887 0.0476 (  2734 PWs)   bands (ev):

   -19.0509 -13.0458  -8.2410  -4.9175   0.5946   5.5101   8.4999   9.0087
     9.3171   9.7970  10.1844  10.3978  10.8859  10.9965  12.0107  12.4482
    13.2063  13.4794  14.6859  15.5584

          k = 0.5000 0.2887 0.0238 (  2732 PWs)   bands (ev):

   -19.0507 -13.0453  -8.2355  -4.9211   0.5949   5.5099   8.4992   9.0045
     9.3288   9.8670  10.1446  10.2109  10.9615  11.2716  11.9271  12.1002
    13.2612  13.8891  14.6959  15.1176

          k = 0.5000 0.2887 0.0000 (  2736 PWs)   bands (ev):

   -19.0515 -13.0504  -8.2436  -4.9131   0.5964   5.5097   8.4971   9.0024
     9.3362   9.9344  10.0843  10.1454  10.9923  11.5082  11.7368  11.9969
    13.2664  14.3165  14.4060  15.0055

          k = 0.3333 0.5774 0.0714 (  2712 PWs)   bands (ev):

   -18.4666 -12.1631 -11.1967  -3.9340   0.4844   8.0199   9.4941  10.5640
    11.2289  12.1704  12.4370  12.6381  12.9831  13.0122  13.1845  13.2209
    13.4809  13.8188  14.0635  14.5837

          k = 0.3333 0.5774 0.0476 (  2706 PWs)   bands (ev):

   -18.4660 -12.1618 -11.1955  -3.9264   0.4852   8.0199   9.4954  10.5648
    11.2283  12.1820  12.4564  12.6498  12.8968  12.9226  13.1514  13.3570
    13.5726  13.8462  14.0594  14.4900

          k = 0.3333 0.5774 0.0238 (  2718 PWs)   bands (ev):

   -18.4667 -12.1661 -11.1982  -3.9374   0.4839   8.0198   9.4916  10.5625
    11.2271  12.2054  12.5134  12.6768  12.7428  12.8269  13.0863  13.5573
    13.7541  13.8943  14.0366  14.2987

          k = 0.3333 0.5774 0.0000 (  2709 PWs)   bands (ev):

   -18.4664 -12.1698 -11.2001  -3.9154   0.4863   8.0199   9.4904  10.5613
    11.2264  12.2211  12.5880  12.6343  12.6927  12.7851  13.0535  13.6701
    13.8789  13.9158  13.9998  14.1839

     Writing output data file run_output/hBN_2D.save/

     init_run     :      0.07s CPU      0.11s WALL (       1 calls)
     electrons    :      4.02s CPU      4.25s WALL (       1 calls)

     Called by init_run:
     wfcinit      :      0.00s CPU      0.01s WALL (       1 calls)
     wfcinit:atom :      0.00s CPU      0.00s WALL (      28 calls)
     wfcinit:wfcr :      0.31s CPU      0.42s WALL (      28 calls)
     potinit      :      0.01s CPU      0.02s WALL (       1 calls)
     hinit0       :      0.01s CPU      0.02s WALL (       1 calls)

     Called by electrons:
     c_bands      :      4.02s CPU      4.23s WALL (       1 calls)
     v_of_rho     :      0.00s CPU      0.00s WALL (       1 calls)
     v_h          :      0.00s CPU      0.00s WALL (       1 calls)
     v_xc         :      0.00s CPU      0.00s WALL (       1 calls)

     Called by c_bands:
     init_us_2    :      0.00s CPU      0.00s WALL (      28 calls)
     cegterg      :      3.00s CPU      3.09s WALL (      29 calls)

     Called by sum_band:

     Called by *egterg:
     cdiaghg      :      0.70s CPU      0.80s WALL (     439 calls)
     cegterg:over :      0.15s CPU      0.15s WALL (     411 calls)
     cegterg:upda :      0.08s CPU      0.08s WALL (     411 calls)
     cegterg:last :      0.06s CPU      0.07s WALL (      85 calls)
     cdiaghg:chol :      0.06s CPU      0.09s WALL (     439 calls)
     cdiaghg:inve :      0.01s CPU      0.02s WALL (     439 calls)
     cdiaghg:para :      0.08s CPU      0.09s WALL (     878 calls)
     h_psi        :      2.26s CPU      2.34s WALL (     468 calls)
     g_psi        :      0.03s CPU      0.03s WALL (     411 calls)

     Called by h_psi:
     h_psi:calbec :      0.02s CPU      0.03s WALL (     468 calls)
     vloc_psi     :      2.22s CPU      2.28s WALL (     468 calls)
     add_vuspsi   :      0.01s CPU      0.01s WALL (     468 calls)

     General routines
     calbec       :      0.02s CPU      0.03s WALL (     468 calls)
     fft          :      0.01s CPU      0.01s WALL (       3 calls)
     fftw         :      1.84s CPU      1.89s WALL (   10474 calls)
     davcio       :      0.00s CPU      0.00s WALL (      56 calls)

     Parallel routines
     fft_scatt_xy :      0.31s CPU      0.32s WALL (   10477 calls)
     fft_scatt_yz :      0.40s CPU      0.42s WALL (   10477 calls)

     PWSCF        :      4.45s CPU      7.80s WALL


   This run was terminated on:  19:23:46  12Oct2021            

=------------------------------------------------------------------------------=
   JOB DONE.
=------------------------------------------------------------------------------=
