
     Program PWSCF v.6.7MaX starts on 23Dec2021 at 16:25:16 

     This program is part of the open-source Quantum ESPRESSO suite
     for quantum simulation of materials; please cite
         "P. Giannozzi et al., J. Phys.:Condens. Matter 21 395502 (2009);
         "P. Giannozzi et al., J. Phys.:Condens. Matter 29 465901 (2017);
          URL http://www.quantum-espresso.org", 
     in publications or presentations arising from this work. More details at
     http://www.quantum-espresso.org/quote

     Parallel version (MPI), running on    56 processors

     MPI processes distributed on     2 nodes
     K-points division:     npool     =       8
     R & G space division:  proc/nbgrp/npool/nimage =       7
     Waiting for input...
     Reading input from standard input

     Current dimensions of program PWSCF are:
     Max number of different atomic species (ntypx) = 10
     Max number of k-points (npk) =  40000
     Max angular momentum in pseudopotentials (lmaxx) =  3

     Subspace diagonalization in iterative solution of the eigenvalue problem:
     one sub-group per band group will be used
     scalapack distributed-memory algorithm (size of sub-group:  2*  2 procs)


     Parallelization info
     --------------------
     sticks:   dense  smooth     PW     G-vecs:    dense   smooth      PW
     Min          83      83     23                 8083     8083    1295
     Max          84      84     24                 8092     8092    1314
     Sum         583     583    163                56613    56613    9123



     bravais-lattice index     =            4
     lattice parameter (alat)  =       5.8772  a.u.
     unit-cell volume          =     897.4163 (a.u.)^3
     number of atoms/cell      =            3
     number of atomic types    =            2
     number of electrons       =        26.00
     number of Kohn-Sham states=           17
     kinetic-energy cutoff     =      60.0000  Ry
     charge density cutoff     =     240.0000  Ry
     scf convergence threshold =      1.0E-10
     mixing beta               =       0.7000
     number of iterations used =            8  plain     mixing
     Exchange-correlation= SLA-PZ-NOGX-NOGC
                           (   1   1   0   0   0   0   0)

     celldm(1)=   5.877208  celldm(2)=   0.000000  celldm(3)=   5.104465
     celldm(4)=   0.000000  celldm(5)=   0.000000  celldm(6)=   0.000000

     crystal axes: (cart. coord. in units of alat)
               a(1) = (   1.000000   0.000000   0.000000 )  
               a(2) = (  -0.500000   0.866025   0.000000 )  
               a(3) = (   0.000000   0.000000   5.104465 )  

     reciprocal axes: (cart. coord. in units 2 pi/alat)
               b(1) = (  1.000000  0.577350 -0.000000 )  
               b(2) = (  0.000000  1.154701  0.000000 )  
               b(3) = (  0.000000 -0.000000  0.195907 )  


     PseudoPot. # 1 for Mo read from file:
     PPs/Mo_SR_withPS_PZ.UPF
     MD5 check sum: 19bf02b7f08077cf8574869525df176e
     Pseudo is Norm-conserving + core correction, Zval = 14.0
     Generated using "atomic" code by A. Dal Corso  (Quantum ESPRESSO distribution)
     Using radial grid of 1229 points,  5 beta functions with: 
                l(1) =   0
                l(2) =   0
                l(3) =   1
                l(4) =   2
                l(5) =   2

     PseudoPot. # 2 for S  read from file:
     PPs/S.pz-hgh.UPF
     MD5 check sum: fb24c143a2a3ea3aba309d3cb9e9e6ec
     Pseudo is Norm-conserving, Zval =  6.0
     Generated in analytical, separable form
     Using radial grid of 1151 points,  3 beta functions with: 
                l(1) =   0
                l(2) =   0
                l(3) =   1

     atomic species   valence    mass     pseudopotential
        Mo            14.00    95.94000     Mo( 1.00)
        S              6.00    32.06500     S ( 1.00)

     12 Sym. Ops. (no inversion) found


                                    s                        frac. trans.

      isym =  1     identity                                     

 cryst.   s( 1) = (     1          0          0      )
                  (     0          1          0      )
                  (     0          0          1      )

 cart.    s( 1) = (  1.0000000  0.0000000  0.0000000 )
                  (  0.0000000  1.0000000  0.0000000 )
                  (  0.0000000  0.0000000  1.0000000 )


      isym =  2     180 deg rotation - cart. axis [0,1,0]        

 cryst.   s( 2) = (    -1          0          0      )
                  (     1          1          0      )
                  (     0          0         -1      )

 cart.    s( 2) = ( -1.0000000  0.0000000  0.0000000 )
                  (  0.0000000  1.0000000  0.0000000 )
                  (  0.0000000  0.0000000 -1.0000000 )


      isym =  3     120 deg rotation - cryst. axis [0,0,1]       

 cryst.   s( 3) = (     0          1          0      )
                  (    -1         -1          0      )
                  (     0          0          1      )

 cart.    s( 3) = ( -0.5000000 -0.8660254  0.0000000 )
                  (  0.8660254 -0.5000000  0.0000000 )
                  (  0.0000000  0.0000000  1.0000000 )


      isym =  4     120 deg rotation - cryst. axis [0,0,-1]      

 cryst.   s( 4) = (    -1         -1          0      )
                  (     1          0          0      )
                  (     0          0          1      )

 cart.    s( 4) = ( -0.5000000  0.8660254  0.0000000 )
                  ( -0.8660254 -0.5000000  0.0000000 )
                  (  0.0000000  0.0000000  1.0000000 )


      isym =  5     180 deg rotation - cryst. axis [1,-1,0]      

 cryst.   s( 5) = (     0         -1          0      )
                  (    -1          0          0      )
                  (     0          0         -1      )

 cart.    s( 5) = (  0.5000000 -0.8660254  0.0000000 )
                  ( -0.8660254 -0.5000000  0.0000000 )
                  (  0.0000000  0.0000000 -1.0000000 )


      isym =  6     180 deg rotation - cryst. axis [2,1,0]       

 cryst.   s( 6) = (     1          1          0      )
                  (     0         -1          0      )
                  (     0          0         -1      )

 cart.    s( 6) = (  0.5000000  0.8660254  0.0000000 )
                  (  0.8660254 -0.5000000  0.0000000 )
                  (  0.0000000  0.0000000 -1.0000000 )


      isym =  7     inv. 180 deg rotation - cart. axis [0,0,1]   

 cryst.   s( 7) = (     1          0          0      )
                  (     0          1          0      )
                  (     0          0         -1      )

 cart.    s( 7) = (  1.0000000  0.0000000  0.0000000 )
                  (  0.0000000  1.0000000  0.0000000 )
                  (  0.0000000  0.0000000 -1.0000000 )


      isym =  8     inv. 180 deg rotation - cart. axis [1,0,0]   

 cryst.   s( 8) = (    -1          0          0      )
                  (     1          1          0      )
                  (     0          0          1      )

 cart.    s( 8) = ( -1.0000000  0.0000000  0.0000000 )
                  (  0.0000000  1.0000000  0.0000000 )
                  (  0.0000000  0.0000000  1.0000000 )


      isym =  9     inv.  60 deg rotation - cryst. axis [0,0,1]  

 cryst.   s( 9) = (    -1         -1          0      )
                  (     1          0          0      )
                  (     0          0         -1      )

 cart.    s( 9) = ( -0.5000000  0.8660254  0.0000000 )
                  ( -0.8660254 -0.5000000  0.0000000 )
                  (  0.0000000  0.0000000 -1.0000000 )


      isym = 10     inv.  60 deg rotation - cryst. axis [0,0,-1] 

 cryst.   s(10) = (     0          1          0      )
                  (    -1         -1          0      )
                  (     0          0         -1      )

 cart.    s(10) = ( -0.5000000 -0.8660254  0.0000000 )
                  (  0.8660254 -0.5000000  0.0000000 )
                  (  0.0000000  0.0000000 -1.0000000 )


      isym = 11     inv. 180 deg rotation - cryst. axis [0,1,0]  

 cryst.   s(11) = (     1          1          0      )
                  (     0         -1          0      )
                  (     0          0          1      )

 cart.    s(11) = (  0.5000000  0.8660254  0.0000000 )
                  (  0.8660254 -0.5000000  0.0000000 )
                  (  0.0000000  0.0000000  1.0000000 )


      isym = 12     inv. 180 deg rotation - cryst. axis [1,1,0]  

 cryst.   s(12) = (     0         -1          0      )
                  (    -1          0          0      )
                  (     0          0          1      )

 cart.    s(12) = (  0.5000000 -0.8660254  0.0000000 )
                  ( -0.8660254 -0.5000000  0.0000000 )
                  (  0.0000000  0.0000000  1.0000000 )


     point group D_3h (-62m)
     there are  6 classes
     the character table:

       E     2C3   3C2   s_h   2S3   3s_v 
A'_1   1.00  1.00  1.00  1.00  1.00  1.00
A'_2   1.00  1.00 -1.00  1.00  1.00 -1.00
E'     2.00 -1.00  0.00  2.00 -1.00  0.00
A''1   1.00  1.00  1.00 -1.00 -1.00 -1.00
A''2   1.00  1.00 -1.00 -1.00 -1.00  1.00
E''    2.00 -1.00  0.00 -2.00  1.00  0.00

     the symmetry operations in each class and the name of the first element:

     E        1
          identity                                               
     2C3      3    4
          120 deg rotation - cryst. axis [0,0,1]                 
     3C2      2    6    5
          180 deg rotation - cart. axis [0,1,0]                  
     s_h      7
          inv. 180 deg rotation - cart. axis [0,0,1]             
     2S3      9   10
          inv.  60 deg rotation - cryst. axis [0,0,1]            
     3s_v     8   11   12
          inv. 180 deg rotation - cart. axis [1,0,0]             

   Cartesian axes

     site n.     atom                  positions (alat units)
         1           Mo  tau(   1) = (  -0.0000000   0.5773503   0.0000000  )
         2           S   tau(   2) = (   0.5000000   0.2886751   0.4991315  )
         3           S   tau(   3) = (   0.5000000   0.2886751  -0.4991315  )

   Crystallographic axes

     site n.     atom                  positions (cryst. coord.)
         1           Mo  tau(   1) = (  0.3333333  0.6666667  0.0000000  )
         2           S   tau(   2) = (  0.6666667  0.3333333  0.0977833  )
         3           S   tau(   3) = (  0.6666667  0.3333333 -0.0977833  )

     number of k points=    19  Gaussian smearing, width (Ry)=  0.0017
                       cart. coord. in units 2pi/alat
        k(    1) = (   0.0000000   0.0000000   0.0000000), wk =   0.0138889
        k(    2) = (   0.0000000   0.0962250   0.0000000), wk =   0.0833333
        k(    3) = (   0.0000000   0.1924501   0.0000000), wk =   0.0833333
        k(    4) = (   0.0000000   0.2886751   0.0000000), wk =   0.0833333
        k(    5) = (   0.0000000   0.3849002   0.0000000), wk =   0.0833333
        k(    6) = (   0.0000000   0.4811252   0.0000000), wk =   0.0833333
        k(    7) = (   0.0000000  -0.5773503   0.0000000), wk =   0.0416667
        k(    8) = (   0.0833333   0.1443376   0.0000000), wk =   0.0833333
        k(    9) = (   0.0833333   0.2405626   0.0000000), wk =   0.1666667
        k(   10) = (   0.0833333   0.3367877   0.0000000), wk =   0.1666667
        k(   11) = (   0.0833333   0.4330127   0.0000000), wk =   0.1666667
        k(   12) = (   0.0833333   0.5292377   0.0000000), wk =   0.1666667
        k(   13) = (   0.1666667   0.2886751   0.0000000), wk =   0.0833333
        k(   14) = (   0.1666667   0.3849002   0.0000000), wk =   0.1666667
        k(   15) = (   0.1666667   0.4811252   0.0000000), wk =   0.1666667
        k(   16) = (   0.1666667   0.5773503   0.0000000), wk =   0.0833333
        k(   17) = (   0.2500000   0.4330127   0.0000000), wk =   0.0833333
        k(   18) = (   0.2500000   0.5292377   0.0000000), wk =   0.1666667
        k(   19) = (   0.3333333   0.5773503   0.0000000), wk =   0.0277778

                       cryst. coord.
        k(    1) = (   0.0000000   0.0000000   0.0000000), wk =   0.0138889
        k(    2) = (   0.0000000   0.0833333   0.0000000), wk =   0.0833333
        k(    3) = (   0.0000000   0.1666667   0.0000000), wk =   0.0833333
        k(    4) = (   0.0000000   0.2500000   0.0000000), wk =   0.0833333
        k(    5) = (   0.0000000   0.3333333   0.0000000), wk =   0.0833333
        k(    6) = (   0.0000000   0.4166667   0.0000000), wk =   0.0833333
        k(    7) = (   0.0000000  -0.5000000   0.0000000), wk =   0.0416667
        k(    8) = (   0.0833333   0.0833333   0.0000000), wk =   0.0833333
        k(    9) = (   0.0833333   0.1666667   0.0000000), wk =   0.1666667
        k(   10) = (   0.0833333   0.2500000   0.0000000), wk =   0.1666667
        k(   11) = (   0.0833333   0.3333333   0.0000000), wk =   0.1666667
        k(   12) = (   0.0833333   0.4166667   0.0000000), wk =   0.1666667
        k(   13) = (   0.1666667   0.1666667   0.0000000), wk =   0.0833333
        k(   14) = (   0.1666667   0.2500000   0.0000000), wk =   0.1666667
        k(   15) = (   0.1666667   0.3333333   0.0000000), wk =   0.1666667
        k(   16) = (   0.1666667   0.4166667   0.0000000), wk =   0.0833333
        k(   17) = (   0.2500000   0.2500000   0.0000000), wk =   0.0833333
        k(   18) = (   0.2500000   0.3333333   0.0000000), wk =   0.1666667
        k(   19) = (   0.3333333   0.3333333   0.0000000), wk =   0.0277778

     Dense  grid:    56613 G-vectors     FFT dimensions: (  30,  30, 150)

     Dynamical RAM for                 wfc:       0.26 MB

     Dynamical RAM for     wfc (w. buffer):       1.04 MB

     Dynamical RAM for           str. fact:       0.25 MB

     Dynamical RAM for           local pot:       0.00 MB

     Dynamical RAM for          nlocal pot:       0.38 MB

     Dynamical RAM for                qrad:       1.78 MB

     Dynamical RAM for          rho,v,vnew:       0.82 MB

     Dynamical RAM for               rhoin:       0.27 MB

     Dynamical RAM for            rho*nmix:       1.97 MB

     Dynamical RAM for           G-vectors:       0.52 MB

     Dynamical RAM for          h,s,v(r/c):       0.05 MB

     Dynamical RAM for          <psi|beta>:       0.01 MB

     Dynamical RAM for                 psi:       1.04 MB

     Dynamical RAM for                hpsi:       1.04 MB

     Dynamical RAM for      wfcinit/wfcrot:       0.88 MB

     Estimated static dynamical RAM per process >       8.17 MB

     Estimated max dynamical RAM per process >      10.32 MB

     Estimated total dynamical RAM >     578.02 MB

     Check: negative core charge=   -0.000110

     Initial potential from superposition of free atoms

     starting charge   23.99902, renormalised to   26.00000

     negative rho (up, down):  1.272E-03 0.000E+00
     Starting wfcs are   28 randomized atomic wfcs

     total cpu time spent up to now is        1.3 secs

     Self-consistent Calculation

     iteration #  1     ecut=    60.00 Ry     beta= 0.70
     Davidson diagonalization with overlap
     ethr =  1.00E-02,  avg # of iterations =  6.6

     total cpu time spent up to now is        1.7 secs

     total energy              =    -220.64012630 Ry
     estimated scf accuracy    <      22.41483504 Ry

     iteration #  2     ecut=    60.00 Ry     beta= 0.70
     Davidson diagonalization with overlap
     ethr =  1.00E-02,  avg # of iterations = 10.2

     total cpu time spent up to now is        2.4 secs

     total energy              =    -232.32543738 Ry
     estimated scf accuracy    <      78.62664303 Ry

     iteration #  3     ecut=    60.00 Ry     beta= 0.70
     Davidson diagonalization with overlap
     ethr =  1.00E-02,  avg # of iterations =  5.2

     total cpu time spent up to now is        2.8 secs

     total energy              =    -238.04754591 Ry
     estimated scf accuracy    <       4.28251639 Ry

     iteration #  4     ecut=    60.00 Ry     beta= 0.70
     Davidson diagonalization with overlap
     ethr =  1.00E-02,  avg # of iterations =  1.6

     total cpu time spent up to now is        3.0 secs

     total energy              =    -237.53636325 Ry
     estimated scf accuracy    <       1.96140757 Ry

     iteration #  5     ecut=    60.00 Ry     beta= 0.70
     Davidson diagonalization with overlap
     ethr =  7.54E-03,  avg # of iterations =  1.3

     total cpu time spent up to now is        3.3 secs

     total energy              =    -237.48152755 Ry
     estimated scf accuracy    <       0.63153573 Ry

     iteration #  6     ecut=    60.00 Ry     beta= 0.70
     Davidson diagonalization with overlap
     ethr =  2.43E-03,  avg # of iterations =  1.1

     total cpu time spent up to now is        3.5 secs

     total energy              =    -237.24350086 Ry
     estimated scf accuracy    <       0.41919499 Ry

     iteration #  7     ecut=    60.00 Ry     beta= 0.70
     Davidson diagonalization with overlap
     ethr =  1.61E-03,  avg # of iterations =  2.8

     total cpu time spent up to now is        3.7 secs

     total energy              =    -237.31593034 Ry
     estimated scf accuracy    <       0.00759568 Ry

     iteration #  8     ecut=    60.00 Ry     beta= 0.70
     Davidson diagonalization with overlap
     ethr =  2.92E-05,  avg # of iterations =  3.2

     total cpu time spent up to now is        4.1 secs

     total energy              =    -237.31757638 Ry
     estimated scf accuracy    <       0.00741177 Ry

     iteration #  9     ecut=    60.00 Ry     beta= 0.70
     Davidson diagonalization with overlap
     ethr =  2.85E-05,  avg # of iterations =  1.0

     total cpu time spent up to now is        4.3 secs

     total energy              =    -237.31475260 Ry
     estimated scf accuracy    <       0.00670612 Ry

     iteration # 10     ecut=    60.00 Ry     beta= 0.70
     Davidson diagonalization with overlap
     ethr =  2.58E-05,  avg # of iterations =  2.9

     negative rho (up, down):  7.956E-06 0.000E+00

     total cpu time spent up to now is        4.5 secs

     total energy              =    -237.31642510 Ry
     estimated scf accuracy    <       0.00337370 Ry

     iteration # 11     ecut=    60.00 Ry     beta= 0.70
     Davidson diagonalization with overlap
     ethr =  1.30E-05,  avg # of iterations =  1.0

     negative rho (up, down):  1.076E-06 0.000E+00

     total cpu time spent up to now is        4.8 secs

     total energy              =    -237.31609352 Ry
     estimated scf accuracy    <       0.00319316 Ry

     iteration # 12     ecut=    60.00 Ry     beta= 0.70
     Davidson diagonalization with overlap
     ethr =  1.23E-05,  avg # of iterations =  1.0

     negative rho (up, down):  2.592E-05 0.000E+00

     total cpu time spent up to now is        5.0 secs

     total energy              =    -237.31588584 Ry
     estimated scf accuracy    <       0.00228904 Ry

     iteration # 13     ecut=    60.00 Ry     beta= 0.70
     Davidson diagonalization with overlap
     ethr =  8.80E-06,  avg # of iterations =  1.0

     negative rho (up, down):  1.066E-05 0.000E+00

     total cpu time spent up to now is        5.2 secs

     total energy              =    -237.31541314 Ry
     estimated scf accuracy    <       0.00163353 Ry

     iteration # 14     ecut=    60.00 Ry     beta= 0.70
     Davidson diagonalization with overlap
     ethr =  6.28E-06,  avg # of iterations =  1.1

     negative rho (up, down):  2.623E-05 0.000E+00

     total cpu time spent up to now is        5.4 secs

     total energy              =    -237.31532244 Ry
     estimated scf accuracy    <       0.00048797 Ry

     iteration # 15     ecut=    60.00 Ry     beta= 0.70
     Davidson diagonalization with overlap
     ethr =  1.88E-06,  avg # of iterations =  2.9

     negative rho (up, down):  5.074E-08 0.000E+00

     total cpu time spent up to now is        5.7 secs

     total energy              =    -237.31533675 Ry
     estimated scf accuracy    <       0.00011767 Ry

     iteration # 16     ecut=    60.00 Ry     beta= 0.70
     Davidson diagonalization with overlap
     ethr =  4.53E-07,  avg # of iterations =  2.1

     total cpu time spent up to now is        5.9 secs

     total energy              =    -237.31534363 Ry
     estimated scf accuracy    <       0.00000863 Ry

     iteration # 17     ecut=    60.00 Ry     beta= 0.70
     Davidson diagonalization with overlap
     ethr =  3.32E-08,  avg # of iterations =  3.1

     total cpu time spent up to now is        6.2 secs

     total energy              =    -237.31534372 Ry
     estimated scf accuracy    <       0.00000361 Ry

     iteration # 18     ecut=    60.00 Ry     beta= 0.70
     Davidson diagonalization with overlap
     ethr =  1.39E-08,  avg # of iterations =  2.5

     total cpu time spent up to now is        6.5 secs

     total energy              =    -237.31534431 Ry
     estimated scf accuracy    <       0.00000014 Ry

     iteration # 19     ecut=    60.00 Ry     beta= 0.70
     Davidson diagonalization with overlap
     ethr =  5.21E-10,  avg # of iterations =  3.0

     total cpu time spent up to now is        6.8 secs

     total energy              =    -237.31534430 Ry
     estimated scf accuracy    <       0.00000013 Ry

     iteration # 20     ecut=    60.00 Ry     beta= 0.70
     Davidson diagonalization with overlap
     ethr =  4.99E-10,  avg # of iterations =  2.0

     total cpu time spent up to now is        7.0 secs

     total energy              =    -237.31534430 Ry
     estimated scf accuracy    <       0.00000002 Ry

     iteration # 21     ecut=    60.00 Ry     beta= 0.70
     Davidson diagonalization with overlap
     ethr =  7.90E-11,  avg # of iterations =  2.9

     total cpu time spent up to now is        7.3 secs

     total energy              =    -237.31534430 Ry
     estimated scf accuracy    <          2.8E-10 Ry

     iteration # 22     ecut=    60.00 Ry     beta= 0.70
     Davidson diagonalization with overlap
     ethr =  1.08E-12,  avg # of iterations =  3.6

     total cpu time spent up to now is        7.7 secs

     End of self-consistent calculation

          k = 0.0000 0.0000 0.0000 (  7087 PWs)   bands (ev):

   -60.0192 -34.5054 -34.1927 -34.1927 -13.9247 -12.5319  -5.4855  -2.2745
    -2.2745  -1.5382  -1.0814  -1.0814   0.2327   3.3519   3.3519   3.6428
     3.6428

     occupation numbers 
     1.0000   1.0000   1.0000   1.0000   1.0000   1.0000   1.0000   1.0000
     1.0000   1.0000   1.0000   1.0000   1.0000   0.0000   0.0000   0.0000
     0.0000

          k = 0.0000 0.0962 0.0000 (  7065 PWs)   bands (ev):

   -60.0142 -34.4985 -34.2259 -34.2000 -13.8106 -12.4862  -5.3588  -2.5153
    -2.1535  -2.0138  -1.2601  -0.7712   0.1990   3.1932   3.3000   3.5117
     3.5476

     occupation numbers 
     1.0000   1.0000   1.0000   1.0000   1.0000   1.0000   1.0000   1.0000
     1.0000   1.0000   1.0000   1.0000   1.0000   0.0000   0.0000   0.0000
     0.0000

          k = 0.0000 0.1925 0.0000 (  7045 PWs)   bands (ev):

   -60.0031 -34.4800 -34.3162 -34.2202 -13.4857 -12.3562  -5.0464  -3.0541
    -2.6972  -1.8154  -1.6783  -0.6790   0.0012   2.7513   3.1096   3.2115
     3.9902

     occupation numbers 
     1.0000   1.0000   1.0000   1.0000   1.0000   1.0000   1.0000   1.0000
     1.0000   1.0000   1.0000   1.0000   1.0000   0.0000   0.0000   0.0000
     0.0000

          k = 0.0000 0.2887 0.0000 (  7009 PWs)   bands (ev):

   -59.9874 -34.4551 -34.4368 -34.2479 -13.0029 -12.1647  -4.8470  -3.4768
    -3.3900  -2.1438  -1.3413  -0.9522  -0.4330   2.5747   2.9225   3.4355
     4.4363

     occupation numbers 
     1.0000   1.0000   1.0000   1.0000   1.0000   1.0000   1.0000   1.0000
     1.0000   1.0000   1.0000   1.0000   1.0000   0.0000   0.0000   0.0000
     0.0000

          k = 0.0000 0.3849 0.0000 (  7036 PWs)   bands (ev):

   -59.9757 -34.5571 -34.4302 -34.2758 -12.4562 -11.9534  -5.1134  -4.0261
    -3.5742  -2.5338  -1.2868  -0.8696  -0.6862   2.7858   2.7869   3.9263
     4.7482

     occupation numbers 
     1.0000   1.0000   1.0000   1.0000   1.0000   1.0000   1.0000   1.0000
     1.0000   1.0000   1.0000   1.0000   1.0000   0.0000   0.0000   0.0000
     0.0000

          k = 0.0000 0.4811 0.0000 (  7054 PWs)   bands (ev):

   -59.9671 -34.6440 -34.4120 -34.2958 -11.9947 -11.7825  -5.5011  -4.4912
    -3.7437  -2.7863  -1.4999  -0.5488  -0.4656   2.8203   3.1532   4.2585
     4.9106

     occupation numbers 
     1.0000   1.0000   1.0000   1.0000   1.0000   1.0000   1.0000   1.0000
     1.0000   1.0000   1.0000   1.0000   1.0000   0.0000   0.0000   0.0000
     0.0000

          k = 0.0000-0.5774 0.0000 (  7056 PWs)   bands (ev):

   -59.9636 -34.6752 -34.4052 -34.3033 -11.8072 -11.7159  -5.6690  -4.6636
    -3.8558  -2.8732  -1.5682  -0.4424  -0.2705   2.8726   3.3715   4.3510
     4.9584

     occupation numbers 
     1.0000   1.0000   1.0000   1.0000   1.0000   1.0000   1.0000   1.0000
     1.0000   1.0000   1.0000   1.0000   1.0000   0.0000   0.0000   0.0000
     0.0000

          k = 0.0833 0.1443 0.0000 (  7059 PWs)   bands (ev):

   -60.0071 -34.4862 -34.2860 -34.2156 -13.5910 -12.3982  -5.1348  -2.8984
    -2.4697  -1.9320  -1.6764  -0.5582   0.0839   2.8834   3.0218   3.2744
     3.9079

     occupation numbers 
     1.0000   1.0000   1.0000   1.0000   1.0000   1.0000   1.0000   1.0000
     1.0000   1.0000   1.0000   1.0000   1.0000   0.0000   0.0000   0.0000
     0.0000

          k = 0.0833 0.2406 0.0000 (  7034 PWs)   bands (ev):

   -59.9939 -34.4644 -34.3871 -34.2440 -13.1860 -12.2362  -4.8458  -3.3609
    -3.0405  -2.2748  -1.5810  -0.5822  -0.2424   2.5181   3.0179   3.0814
     4.3972

     occupation numbers 
     1.0000   1.0000   1.0000   1.0000   1.0000   1.0000   1.0000   1.0000
     1.0000   1.0000   1.0000   1.0000   1.0000   0.0000   0.0000   0.0000
     0.0000

          k = 0.0833 0.3368 0.0000 (  7030 PWs)   bands (ev):

   -59.9803 -34.5022 -34.4395 -34.2769 -12.6670 -12.0310  -4.8962  -3.7175
    -3.5051  -2.6749  -1.3375  -0.9053  -0.5193   2.4622   2.9737   3.4880
     4.7620

     occupation numbers 
     1.0000   1.0000   1.0000   1.0000   1.0000   1.0000   1.0000   1.0000
     1.0000   1.0000   1.0000   1.0000   1.0000   0.0000   0.0000   0.0000
     0.0000

          k = 0.0833 0.4330 0.0000 (  7036 PWs)   bands (ev):

   -59.9690 -34.6012 -34.4177 -34.3051 -12.1528 -11.8332  -5.2518  -4.3389
    -3.5852  -2.8476  -1.2763  -1.2274  -0.3561   2.6768   3.1202   3.9796
     4.8730

     occupation numbers 
     1.0000   1.0000   1.0000   1.0000   1.0000   1.0000   1.0000   1.0000
     1.0000   1.0000   1.0000   1.0000   1.0000   0.0000   0.0000   0.0000
     0.0000

          k = 0.0833 0.5292 0.0000 (  7050 PWs)   bands (ev):

   -59.9632 -34.6578 -34.4050 -34.3216 -11.8155 -11.7081  -5.5230  -4.7038
    -3.7781  -2.8953  -1.5101  -1.0608  -0.0957   2.8605   3.3766   4.3851
     4.7215

     occupation numbers 
     1.0000   1.0000   1.0000   1.0000   1.0000   1.0000   1.0000   1.0000
     1.0000   1.0000   1.0000   1.0000   1.0000   0.0000   0.0000   0.0000
     0.0000

          k = 0.1667 0.2887 0.0000 (  7031 PWs)   bands (ev):

   -59.9821 -34.4744 -34.4430 -34.2854 -12.7419 -12.0576  -4.7841  -3.4661
    -3.4620  -2.9575  -1.5788  -0.6058  -0.4524   2.3242   3.0353   3.1683
     4.8291

     occupation numbers 
     1.0000   1.0000   1.0000   1.0000   1.0000   1.0000   1.0000   1.0000
     1.0000   1.0000   1.0000   1.0000   1.0000   0.0000   0.0000   0.0000
     0.0000

          k = 0.1667 0.3849 0.0000 (  7038 PWs)   bands (ev):

   -59.9710 -34.5567 -34.4213 -34.3312 -12.2441 -11.8572  -4.9833  -4.2047
    -3.3541  -3.0725  -1.9132  -0.9365  -0.3750   2.4949   3.1961   3.4880
     5.0508

     occupation numbers 
     1.0000   1.0000   1.0000   1.0000   1.0000   1.0000   1.0000   1.0000
     1.0000   1.0000   1.0000   1.0000   1.0000   0.0000   0.0000   0.0000
     0.0000

          k = 0.1667 0.4811 0.0000 (  7045 PWs)   bands (ev):

   -59.9629 -34.6150 -34.4052 -34.3662 -11.8318 -11.6925  -5.1841  -4.7778
    -3.5400  -2.9647  -2.0031  -1.3509  -0.1144   2.7574   3.4385   3.8152
     5.0630

     occupation numbers 
     1.0000   1.0000   1.0000   1.0000   1.0000   1.0000   1.0000   1.0000
     1.0000   1.0000   1.0000   1.0000   1.0000   0.0000   0.0000   0.0000
     0.0000

          k = 0.1667 0.5774 0.0000 (  7054 PWs)   bands (ev):

   -59.9604 -34.6361 -34.3993 -34.3793 -11.6674 -11.6274  -5.2562  -4.9869
    -3.7096  -2.8745  -1.9757  -1.5537   0.0745   2.7458   3.6847   3.9548
     5.0201

     occupation numbers 
     1.0000   1.0000   1.0000   1.0000   1.0000   1.0000   1.0000   1.0000
     1.0000   1.0000   1.0000   1.0000   1.0000   0.0000   0.0000   0.0000
     0.0000

          k = 0.2500 0.4330 0.0000 (  7037 PWs)   bands (ev):

   -59.9624 -34.5865 -34.4050 -34.3957 -11.8399 -11.6846  -4.9819  -4.8121
    -3.2297  -3.0077  -2.6473  -1.2522  -0.1542   2.6922   3.4755   3.5298
     5.2807

     occupation numbers 
     1.0000   1.0000   1.0000   1.0000   1.0000   1.0000   1.0000   1.0000
     1.0000   1.0000   1.0000   1.0000   1.0000   0.0000   0.0000   0.0000
     0.0000

          k = 0.2500 0.5292 0.0000 (  7041 PWs)   bands (ev):

   -59.9577 -34.5926 -34.4441 -34.3957 -11.5867 -11.5728  -5.1921  -4.8430
    -3.5647  -2.8761  -2.7808  -1.6220   0.1702   2.5134   3.5341   3.9268
     5.4546

     occupation numbers 
     1.0000   1.0000   1.0000   1.0000   1.0000   1.0000   1.0000   1.0000
     1.0000   1.0000   1.0000   1.0000   1.0000   0.0000   0.0000   0.0000
     0.0000

          k = 0.3333 0.5774 0.0000 (  7047 PWs)   bands (ev):

   -59.9563 -34.5567 -34.5010 -34.3921 -11.5246 -11.4952  -5.3566  -4.4216
    -3.8911  -3.1870  -2.6061  -1.8246   0.3675   2.2709   3.4071   4.1904
     5.6590

     occupation numbers 
     1.0000   1.0000   1.0000   1.0000   1.0000   1.0000   1.0000   1.0000
     1.0000   1.0000   1.0000   1.0000   1.0000   0.0000   0.0000   0.0000
     0.0000

     the Fermi energy is     1.5946 ev

!    total energy              =    -237.31534430 Ry
     estimated scf accuracy    <          1.5E-11 Ry
     smearing contrib. (-TS)   =      -0.00000000 Ry
     internal energy E=F+TS    =    -237.31534430 Ry

     The total energy is F=E-TS. E is the sum of the following terms:
     one-electron contribution =    -816.80731186 Ry
     hartree contribution      =     410.54070802 Ry
     xc contribution           =     -86.47137835 Ry
     ewald contribution        =     255.42263788 Ry

     convergence has been achieved in  22 iterations

     Writing output data file run_output/MoS2_2D.save/

     init_run     :      0.84s CPU      0.99s WALL (       1 calls)
     electrons    :      6.08s CPU      6.43s WALL (       1 calls)

     Called by init_run:
     wfcinit      :      0.14s CPU      0.27s WALL (       1 calls)
     wfcinit:atom :      0.00s CPU      0.00s WALL (       3 calls)
     wfcinit:wfcr :      0.13s CPU      0.25s WALL (       3 calls)
     potinit      :      0.20s CPU      0.21s WALL (       1 calls)
     hinit0       :      0.26s CPU      0.26s WALL (       1 calls)

     Called by electrons:
     c_bands      :      4.83s CPU      5.10s WALL (      22 calls)
     sum_band     :      0.93s CPU      0.96s WALL (      22 calls)
     v_of_rho     :      0.09s CPU      0.10s WALL (      23 calls)
     v_h          :      0.03s CPU      0.03s WALL (      23 calls)
     v_xc         :      0.06s CPU      0.06s WALL (      23 calls)
     mix_rho      :      0.13s CPU      0.14s WALL (      22 calls)

     Called by c_bands:
     init_us_2    :      0.09s CPU      0.09s WALL (     135 calls)
     cegterg      :      4.38s CPU      4.64s WALL (      66 calls)

     Called by sum_band:
     sum_band:wei :      0.01s CPU      0.01s WALL (      22 calls)
     sum_band:loo :      0.81s CPU      0.84s WALL (      22 calls)
     sum_band:buf :      0.01s CPU      0.01s WALL (      66 calls)
     sum_band:ini :      0.04s CPU      0.04s WALL (      66 calls)

     Called by *egterg:
     cdiaghg      :      0.38s CPU      0.50s WALL (     272 calls)
     cegterg:over :      0.12s CPU      0.13s WALL (     206 calls)
     cegterg:upda :      0.07s CPU      0.08s WALL (     206 calls)
     cegterg:last :      0.03s CPU      0.03s WALL (      74 calls)
     cdiaghg:chol :      0.04s CPU      0.08s WALL (     272 calls)
     cdiaghg:inve :      0.01s CPU      0.01s WALL (     272 calls)
     cdiaghg:para :      0.05s CPU      0.05s WALL (     544 calls)
     h_psi        :      3.82s CPU      4.06s WALL (     275 calls)
     g_psi        :      0.04s CPU      0.04s WALL (     206 calls)

     Called by h_psi:
     h_psi:calbec :      0.06s CPU      0.07s WALL (     275 calls)
     vloc_psi     :      3.72s CPU      3.94s WALL (     275 calls)
     add_vuspsi   :      0.03s CPU      0.03s WALL (     275 calls)

     General routines
     calbec       :      0.06s CPU      0.07s WALL (     275 calls)
     fft          :      0.09s CPU      0.10s WALL (      69 calls)
     ffts         :      0.02s CPU      0.03s WALL (      22 calls)
     fftw         :      3.66s CPU      3.87s WALL (    7536 calls)

     Parallel routines
     fft_scatt_xy :      0.61s CPU      0.64s WALL (    7627 calls)
     fft_scatt_yz :      0.91s CPU      1.02s WALL (    7627 calls)

     PWSCF        :      7.09s CPU      8.09s WALL


   This run was terminated on:  16:25:24  23Dec2021            

=------------------------------------------------------------------------------=
   JOB DONE.
=------------------------------------------------------------------------------=
